48
TotEnergy=-245.63228303 pbc="T T T" Lattice="5.55000000 0.00000000 0.00000000 0.00000000 5.55000000 0.00000000 0.00000000 0.00000000 5.55000000" Properties=species:S:1:pos:R:3:force:R:3:Z:I:1
H       0.68052000      0.73895000      0.99630000      0.63415000      0.48533500      0.04199000        1
H       0.43826000      0.53750000      3.35183000      0.85879000      1.15725900      1.08633800        1
H       0.57124000      3.36301000      0.73802000     -0.85873000      0.33391900     -1.14427600        1
H       0.74403000      3.65436000      3.71194000     -0.03498300     -0.60697100     -0.66541200        1
H       3.28205000      0.57196000      0.72906000     -0.02809600      0.12803400     -1.18086000        1
H       3.26435000      0.54574000      3.45794000      0.36119900     -0.12515000      0.25397800        1
H       3.47700000      3.57222000      0.76339000      0.31202700      0.07763200      0.55912000        1
H       3.24370000      3.35388000      3.40054000      0.60088800      0.29904500     -0.16886900        1
H       1.83974000      1.88228000      0.84857000     -0.31163900     -0.04319100      0.84022500        1
H       2.17726000      2.17945000      3.29069000     -0.67483600     -0.17469600      0.59001000        1
H       2.13070000      4.98902000      0.60747000     -0.58935100     -0.05055100      0.11676400        1
H       1.93776000      4.76904000      3.54116000      0.51308800      0.04838900      0.09072900        1
H       4.78922000      1.95490000      0.82187000     -0.38314900      0.42793900     -0.18807600        1
H       4.48524000      1.94912000      3.58333000      0.71986100      0.11808800      0.98450500        1
H       4.87603000      5.00476000      0.56335000      0.10153400      0.01036100     -0.00096400        1
H       4.64227000      4.64838000      3.62289000      0.47756700      1.09255500     -0.53367900        1
H       2.05817000      0.60179000      2.42332000      0.04234800     -0.06497000     -1.12929300        1
H       1.82296000      0.81522000      4.81358000      0.28904200      0.23402200     -0.49770700        1
H       1.92418000      3.57774000      1.87824000      0.01633000     -0.11910200      0.72503000        1
H       2.09968000      3.32071000      5.03161000      0.32171500     -0.13671300      0.06347400        1
H       4.73770000      0.62157000      2.26007000      1.05942800     -0.48764400     -0.32529600        1
H       4.79610000      0.79426000      4.88355000     -0.47206100      0.31142500     -0.95564300        1
H       4.85049000      3.41892000      2.23888000      0.66656100     -0.67661200     -0.18733600        1
H       4.88258000      3.32918000      5.03098000     -0.67096500      0.82562400     -0.66719900        1
H       0.47376000      2.23522000      2.37120000      1.48209400     -1.52233600     -1.84633400        1
H       0.74778000      1.98568000      4.73568000     -0.26757100      0.33466900     -0.09951900        1
H       0.67926000      4.72054000      2.17917000      0.21353800      0.02935800     -1.23761900        1
H       0.53780000      4.87032000      5.03100000      0.20986100      0.78892300     -0.33564600        1
H       3.40493000      1.98276000      1.98751000      1.19344500      0.34478200     -0.55742400        1
H       3.27130000      2.13009000      5.15692000     -0.02441300      0.25808300     -0.60209600        1
H       3.44922000      4.71670000      1.97055000      0.71872700     -0.10216300     -0.36818100        1
H       3.42034000      4.80190000      4.82467000      0.67312000     -0.34542200     -0.85585500        1
O       5.50368000      0.01160000      5.50783000     -0.11783200     -0.91509700      1.42575700        8
O       5.42385000      5.52421000      2.81565000     -1.57826000     -0.52756100     -1.02401100        8
O       5.51442000      2.81721000      0.01191000      1.78889300     -0.90737700      1.98977900        8
O       5.47361000      2.82938000      2.83592000     -2.88668500      2.18832400      2.16481800        8
O       2.67197000      0.04539000      0.02748000      0.81584000     -0.30142500      0.59169700        8
O       2.74314000      5.51554000      2.80099000     -0.06062500      1.34748700      0.56194300        8
O       2.64327000      2.75103000      0.13655000     -0.12012100      0.20369500     -0.53870300        8
O       2.73674000      2.76722000      2.71551000      0.13506800     -0.66725100      0.05738000        8
O       1.27655000      1.35446000      1.54528000     -0.18020700     -0.07276400     -1.46685700        8
O       1.33193000      1.41575000      4.15105000     -0.05227000     -0.51520100     -0.02308900        8
O       1.30504000      4.22051000      1.44934000     -0.75698600     -0.19992500     -0.21070100        8
O       1.43581000      4.18362000      4.18880000     -1.44178000     -0.47706500      1.05938700        8
O       4.11236000      1.39863000      1.34850000     -0.56799700     -0.91901800      2.05337800        8
O       4.07812000      1.40851000      4.32352000     -0.62451800     -0.36050500     -1.27068400        8
O       4.08860000      4.17488000      1.36689000     -0.14359500      0.20126400      0.21261400        8
O       4.00831000      4.14976000      4.15570000     -1.35844700     -0.92750300      2.61241500        8
48
TotEnergy=-249.77543158 pbc="T T T" Lattice="5.79000000 0.00000000 0.00000000 0.00000000 5.79000000 0.00000000 0.00000000 0.00000000 5.81895000" Properties=species:S:1:pos:R:3:force:R:3:Z:I:1
H       0.60525000      2.14264000      4.82250000     -0.64363100      1.34751500      0.04511400        1
H       5.32649000      3.42998000      4.90062000     -0.50413100      0.18687200      0.28728000        1
H       1.99192000      1.98313000      0.32820000      2.27061300      1.78302700      1.91592500        1
H       0.91793000      0.73055000      0.51157000     -0.00645300      0.80859600      0.15329800        1
H       4.89013000      0.84662000      5.16611000     -0.20342000      0.14619100      0.60656400        1
H       3.82635000      1.96913000      5.13584000     -0.86584200      0.88754000      0.10397000        1
H       0.64037000      0.63298000      3.95720000     -1.11049900     -0.81054600     -0.51383200        1
H       2.36283000      2.38320000      3.56032000      0.31874500      0.72008100      2.17419000        1
H       3.38106000      2.41573000      1.89089000      0.31910300      0.25460700      0.59389200        1
H       5.51249000      0.80565000      1.99949000     -1.70327000      1.96491500      2.18859300        1
H       4.93282000      2.06951000      3.45199000     -0.38266800     -0.15598400      0.38133200        1
H       1.03526000      3.56051000      3.22710000     -0.95592700     -0.33591700      0.72056900        1
H       5.01978000      3.81002000      2.27502000     -1.15594600      0.38616700      1.03302800        1
H       0.99235000      2.06117000      2.28943000     -0.26937000     -0.07294600     -0.15615700        1
H       0.73594000      3.24265000      0.67247000     -0.57551800      1.32287700      0.49321900        1
H       5.28545000      2.30037000      0.90138000     -0.30080800      0.58390600      0.04142400        1
H       3.48649000      5.20656000      4.76329000     -0.60390400      0.55097900      0.41556300        1
H       2.26820000      0.50117000      4.84345000     -1.03523600      1.30056700      1.66393900        1
H       4.98669000      4.97586000      0.54730000     -1.69741700     -0.88129900     -1.26302100        1
H       3.80802000      3.74903000      0.50859000      0.14015400      0.98555600     -0.48590200        1
H       1.99292000      4.07099000      5.24425000     -0.44616500     -0.43894500      0.91118600        1
H       0.70530000      4.83937000      5.05925000     -0.11161400      0.56590500      1.32249100        1
H       3.49711000      3.53446000      3.77609000     -0.91342700     -0.66324800      0.74168800        1
H       5.40506000      5.19468000      3.62148000     -1.21383400      0.02222000     -0.26801800        1
H       0.57291000      5.25190000      1.87975000     -1.03360300      0.80746800     -0.13598700        1
H       2.38326000      3.83622000      2.01059000      0.34321400     -1.97606800     -0.61309400        1
H       2.02814000      4.74373000      3.52027000     -0.05413000      0.89867100     -0.18712000        1
H       3.81911000      0.80845000      3.26191000      0.14462500      0.30210500      0.47503300        1
H       2.13687000      0.85566000      2.39760000     -0.60505300      0.62785400     -0.17590500        1
H       3.93933000      4.86134000      2.15102000     -1.29702400      1.59651600     -0.54150300        1
H       3.65106000      0.67883000      0.70363000     -1.33981000     -0.23065800      0.94668500        1
H       2.30467000      5.29066000      1.03691000      1.30598400      1.49666600     -0.20290300        1
O       0.01561000      2.81901000      4.29799000      0.60346000     -0.08244400     -0.68262400        8
O       1.34404000      1.45263000      5.76617000     -1.55138700     -2.55970000     -2.04789400        8
O       4.35490000      1.47542000      5.80355000      0.23253600     -1.13848300     -0.90663500        8
O       5.69959000      0.01675000      4.33293000      1.95884900      1.05523900     -0.00780700        8
O       5.67213000      0.08769000      1.44213000      3.55982800     -3.74938700     -2.11792600        8
O       4.34981000      1.51645000      2.84657000     -0.18364600      0.79527400     -0.96735400        8
O       1.43202000      1.45321000      2.93271000      1.25869000     -0.40131300     -0.75264600        8
O       0.02621000      3.02027000      1.33551000     -0.12326100     -2.02568600      1.30158800        8
O       2.78223000      5.77573000      4.25726000      2.76668600     -2.08691000     -1.49404600        8
O       4.34250000      4.42921000      5.73051000      0.65140200     -0.20223700      0.66666200        8
O       1.26524000      4.46868000      0.00822000      2.19539400     -0.49820500     -1.71738200        8
O       2.78183000      3.00503000      4.33199000      1.47392700     -0.79658200     -1.63386400        8
O       2.89197000      3.10966000      1.39655000     -0.57156800     -0.48225000     -1.23903200        8
O       1.46019000      4.31965000      2.80885000     -0.19740600      1.64871700     -0.57584500        8
O       4.32517000      4.37256000      2.86838000      3.14527600     -2.17354700      0.34319600        8
O       2.95915000      0.17168000      1.45225000     -1.03252000     -1.28367600     -0.83993200        8
48
TotEnergy=-249.51696222 pbc="T T T" Lattice="5.65000000 0.00000000 0.00000000 0.00000000 5.65000000 0.00000000 0.00000000 0.00000000 5.67825000" Properties=species:S:1:pos:R:3:force:R:3:Z:I:1
H       0.67108000      2.23689000      4.82589000     -0.65600200      0.22311100     -0.27743000        1
H       5.11718000      3.29752000      4.89568000     -0.30818800      0.63028400      0.12877900        1
H       2.05461000      1.87996000      0.62174000     -0.24363000      0.49296300     -0.39052500        1
H       0.77102000      0.84474000      0.64960000      0.64469800      0.30297600     -0.84511300        1
H       4.88233000      0.84031000      5.07614000     -1.11464400      0.27621500      0.76104300        1
H       3.62348000      1.94077000      5.19558000      0.03622200      0.17772200     -0.17469400        1
H       0.57638000      0.65270000      3.81579000     -0.10221500     -0.36563100     -0.51638900        1
H       2.16232000      2.35785000      3.74848000      0.73385700     -0.10907400     -0.25443100        1
H       3.49566000      2.33280000      2.00666000     -0.65745000     -0.07435300     -0.27068600        1
H       5.06376000      0.53624000      2.01828000     -0.12832300      0.55470700      0.08896000        1
H       4.73788000      2.05736000      3.42747000     -0.01772900     -1.02528200     -0.42187600        1
H       0.92258000      3.70526000      3.50119000     -0.62465900     -0.30410600     -0.30153800        1
H       4.84943000      3.59979000      2.41188000     -0.55718300      0.81674500      0.20201900        1
H       0.88733000      1.96039000      2.30027000     -0.63008500      0.55636100     -0.39233700        1
H       0.57404000      3.48722000      1.02212000     -0.11771500     -0.73570800     -0.33126700        1
H       5.22575000      2.23250000      0.80466000     -0.92370000     -0.10331300      0.10306700        1
H       3.37156000      5.04995000      4.88283000      0.76123600     -0.37616300      0.42420100        1
H       2.28118000      0.55569000      4.76235000     -0.86972500      0.98896800      1.28665700        1
H       4.80918000      4.81403000      0.49207000     -0.05424400     -0.49519300      0.45484200        1
H       3.67026000      3.58562000      0.50167000     -0.14864200     -0.16485300      1.08837600        1
H       2.01183000      3.79158000      5.20765000      0.67913900     -1.28195400     -0.87788200        1
H       0.84390000      4.92941000      5.16222000      0.07432800     -0.44279800      0.24021300        1
H       3.40944000      3.46091000      3.85723000      0.30578200      0.12698300     -0.89359400        1
H       5.12941000      4.96615000      3.71925000     -0.25719300      0.99689000      0.24781500        1
H       0.62939000      5.14022000      1.88652000     -0.05834100     -0.47638600      0.90525600        1
H       2.24959000      3.44406000      1.93020000      0.35678400     -0.30432500      0.28096400        1
H       2.01021000      4.83385000      3.41363000      0.31763700      0.27782300      0.16864300        1
H       3.69509000      0.77713000      3.30395000     -0.45710400      0.11741500      0.82082900        1
H       2.04131000      0.85653000      2.34656000      0.26000700     -0.26706500     -0.09520300        1
H       3.63453000      4.77971000      2.37278000      0.84404000     -0.24523700      0.21401600        1
H       3.39962000      0.48536000      0.93197000      0.64586800      0.63775900     -0.41397800        1
H       2.20278000      5.04029000      0.97784000      0.67852300      0.29420400      0.01400700        1
O       0.01576000      2.79152000      4.23539000      1.39871700     -1.02995900      0.00981800        8
O       1.43010000      1.38037000      0.01183000     -0.05083200     -0.13034600      0.73104200        8
O       4.23665000      1.40539000      0.07863000      0.75126800     -0.82488500     -0.61314200        8
O       5.62352000      0.04659000      4.34383000      0.40097300     -0.53525000     -0.11315400        8
O       5.63571000      0.02644000      1.37601000     -0.12148000     -0.00548700     -0.23041100        8
O       4.19559000      1.43311000      2.77708000      1.35478200      0.87848500      0.65979800        8
O       1.43769000      1.40760000      2.90396000      0.36941900     -0.18657700      0.91077900        8
O       0.03702000      2.77890000      1.49653000      0.52314700      1.17005800      0.67607500        8
O       2.86121000      5.61852000      4.27788000      0.44491900     -0.35364700     -1.78730400        8
O       4.32810000      4.10862000      5.65702000     -0.18083900      1.88232400     -1.00615600        8
O       1.39936000      4.29146000      0.08022000     -1.18066500      1.41440200      1.10574900        8
O       2.78452000      2.88223000      4.33908000     -0.50988800     -0.85109600      0.98930600        8
O       2.88361000      2.88603000      1.38928000     -0.67398500     -0.50125000      0.37895600        8
O       1.41584000      4.27600000      2.84905000     -0.28273500     -0.17803000     -0.50700100        8
O       4.29237000      4.25614000      3.00073000      0.46817900     -0.88429800     -1.50825800        8
O       2.87705000      5.57970000      1.56045000     -1.12233200     -0.56413100     -0.66884400        8
48
TotEnergy=-227.80975411 pbc="T T T" Lattice="5.17000000 0.00000000 0.00000000 0.00000000 5.17000000 0.00000000 0.00000000 0.00000000 5.17000000" Properties=species:S:1:pos:R:3:force:R:3:Z:I:1
H       0.69326000      0.70998000      0.70324000     -0.36665800     -0.69425700     -0.50086200        1
H       0.69607000      0.68430000      3.28697000     -0.28405500     -0.12861300     -0.19200100        1
H       0.68269000      3.27484000      0.70149000     -0.10940800     -0.13504000     -0.13405200        1
H       0.67915000      3.27734000      3.28049000     -0.44347300     -0.54176200     -0.51945600        1
H       3.24235000      0.67221000      0.68158000      0.17459200      0.12908000      0.11546200        1
H       3.22149000      0.62733000      3.24489000      0.14176700      0.13861800     -0.00797900        1
H       3.21132000      3.26534000      0.68710000      0.27989600     -0.12251500     -0.12136400        1
H       3.25221000      3.27892000      3.30853000     -0.13799100     -0.26404100     -0.35204800        1
H       1.96812000      1.95571000      0.63844000      0.06529700     -0.03273600     -0.16910300        1
H       1.92499000      1.93466000      3.23298000      0.02625000      0.04573900      0.05859400        1
H       1.90304000      4.52017000      0.64980000      0.05177900     -0.02278800      0.15010800        1
H       1.94427000      4.54606000      3.22558000      0.01928600     -0.08128700     -0.03065700        1
H       4.53268000      1.92596000      0.64699000     -0.12074800      0.08306200      0.04986000        1
H       4.54665000      1.95771000      3.24720000      0.09110200      0.10863000     -0.56861500        1
H       4.55026000      4.56339000      0.61791000      0.10533500      0.18961000     -0.21181500        1
H       4.52446000      4.54789000      3.20278000      0.13468000     -0.07533200      0.03692100        1
H       1.92061000      0.65698000      1.97702000     -0.06031800      0.01476100     -0.45890800        1
H       1.92173000      0.62603000      4.55527000      0.26338900      0.02692400     -0.05357600        1
H       1.94997000      3.18154000      1.94851000      0.10500800      0.07492600      0.32769100        1
H       1.94726000      3.19693000      4.59003000      0.15368900     -0.24312100     -0.15476200        1
H       4.53598000      0.66123000      1.94533000     -0.26668500     -0.07342400     -0.12802700        1
H       4.53757000      0.63805000      4.53399000      0.11966900     -0.30643000      0.20382600        1
H       4.46416000      3.25584000      1.90559000      0.16035400     -0.18118000      0.14611200        1
H       4.49022000      3.21146000      4.55435000      0.22852200      0.10480800     -0.17569000        1
H       0.59090000      1.96199000      1.97222000     -0.10079900      0.25325700      0.11727900        1
H       0.59743000      1.96622000      4.57087000      0.12909600     -0.00027400     -0.20223500        1
H       0.58557000      4.53859000      1.97199000      0.20883700      0.00206700     -0.02792600        1
H       0.60425000      4.48089000      4.49828000      0.21764200      0.26112200      0.24304400        1
H       3.22226000      1.97271000      1.98241000     -0.20509900     -0.05155500      0.06185900        1
H       3.29127000      1.89504000      4.49347000     -0.16353400     -0.13493000     -0.08891700        1
H       3.21239000      4.52926000      1.94496000      0.08732300     -0.09044000     -0.07424200        1
H       3.19446000      4.53634000      4.56231000     -0.00848400      0.21626600      0.01041800        1
O       5.16818000      0.00533000      0.00948000     -0.11375500     -0.26986500     -0.01384800        8
O       5.15834000      5.16143000      2.58756000      0.07707300      0.19526200     -0.08201900        8
O       5.16413000      2.57839000      0.01160000     -0.25137400      0.15023300      0.36702800        8
O       5.13854000      2.59084000      2.57237000      0.78655400     -0.17585400      0.22887300        8
O       2.57850000      0.00854000      0.00348000     -0.23791200     -0.44415800     -0.37157200        8
O       2.57685000      0.00260000      2.60581000     -0.20626100     -0.54464800     -0.00394700        8
O       2.58799000      2.57243000      0.00751000     -0.11122700      0.02829700     -0.40769800        8
O       2.57094000      2.57940000      2.60440000      0.31103800      0.15218600     -0.36439700        8
O       1.30197000      1.28028000      1.29286000      0.09252600      0.77355700      1.15252000        8
O       1.28463000      1.29824000      3.87749000     -0.08237400     -0.11979100      0.50526600        8
O       1.29882000      3.87946000      1.29923000     -0.17866900      0.05903100      0.04793900        8
O       1.26718000      3.86390000      3.89339000      0.70918500      0.51932900      0.08362700        8
O       3.86791000      1.29252000      1.29697000      0.03142200     -0.14842300      0.28975600        8
O       3.89796000      1.26802000      3.86782000     -0.71046300      0.71976800      0.49508100        8
O       3.85700000      3.88041000      1.28865000     -0.39319500      0.41590900      0.18251000        8
O       3.87892000      3.87201000      3.88553000     -0.21882600      0.22002400      0.54194400        8
48
TotEnergy=-253.43779601 pbc="T T T" Lattice="5.79000000 0.00000000 0.00000000 0.00000000 5.79000000 0.00000000 0.00000000 0.00000000 5.90580000" Properties=species:S:1:pos:R:3:force:R:3:Z:I:1
H       0.72099000      2.26451000      4.90156000     -0.64761500      0.12275800     -0.17915600        1
H       5.28589000      3.40990000      4.94169000      0.88453100     -1.05663700     -0.84561200        1
H       2.06773000      1.99140000      0.44333000      0.19726600      0.04236000      0.76394100        1
H       0.96804000      0.77916000      0.40783000     -0.18181600      0.26115000      0.59643700        1
H       4.97585000      0.81440000      5.39592000      0.20235600     -0.25488300     -0.91408000        1
H       3.81240000      1.97781000      5.46074000     -0.07170700     -0.09176900     -0.92899800        1
H       0.63790000      0.48402000      3.90563000     -0.06643900      0.10888800     -0.40914600        1
H       2.44503000      2.23516000      3.77728000     -0.95944200     -0.83495200     -1.00608600        1
H       3.56983000      2.28330000      2.09740000     -0.88350900      0.07891300     -0.96031500        1
H       5.31259000      0.55318000      1.90835000      0.47498100     -0.37785300     -0.12656300        1
H       5.01455000      1.88568000      3.41434000      0.99631500      0.99663600      1.10176200        1
H       0.98448000      3.67136000      3.40952000     -0.20947900      0.28329600     -0.15732400        1
H       4.95780000      3.59204000      2.41116000     -0.19506500      0.96243300      0.21282600        1
H       0.99219000      1.93552000      2.39245000     -0.47264100      0.24787100     -0.75026600        1
H       0.48137000      3.42985000      0.90523000      1.14178200      0.69391700     -0.52283700        1
H       5.27128000      2.29099000      0.82161000     -0.08571900     -0.59790000      0.41935900        1
H       3.52147000      5.06709000      4.86416000      0.57191500     -0.79602900      1.22798800        1
H       2.47249000      0.53937000      4.88040000     -0.12725000     -0.08691100      0.57825200        1
H       4.84261000      4.82408000      0.39555000      0.56039700     -0.10763900     -0.12998500        1
H       3.82545000      3.64922000      0.59731000     -0.21200900     -0.09527600     -0.84094100        1
H       1.98651000      3.61749000      5.24017000      0.33666200      0.12523500     -0.01482600        1
H       1.01383000      4.90197000      5.32507000     -0.14000500     -1.05369500      0.19837700        1
H       3.53694000      3.37709000      3.93111000      0.73532500      0.79858700     -1.10496600        1
H       5.29653000      5.12446000      3.80235000     -0.06322800     -0.28693200     -0.19646900        1
H       0.59267000      5.09668000      1.92514000     -0.15019600      0.80691200     -0.34133500        1
H       2.33406000      3.33941000      1.93026000     -0.33079800      0.80345900      0.44219900        1
H       1.98890000      4.89972000      3.41692000      0.32329600     -0.22424800     -0.29061000        1
H       3.88854000      0.75412000      3.51732000      0.32072800      0.50589700     -0.60555600        1
H       2.20703000      0.86257000      2.39478000     -0.56447400     -0.22519400     -0.35373500        1
H       3.88784000      4.90204000      2.37180000      0.40815500     -1.06027300      0.56754400        1
H       3.58823000      0.57221000      0.98236000     -0.15349700     -0.03414900     -0.14519200        1
H       2.38759000      5.33308000      0.91668000     -0.27466000     -0.88437900     -0.21959100        1
O       0.08155000      2.79559000      4.31619000     -0.36782100      0.70423800      0.45655600        8
O       1.51586000      1.41728000      5.77358000      0.13756200     -0.91038500     -1.04621500        8
O       4.40262000      1.37481000      0.05383000     -0.26978400      0.30730500      0.80954400        8
O       0.03372000      5.69333000      4.43319000      0.48460600      0.56889600      0.84302900        8
O       0.10048000      5.76383000      1.31482000     -0.49112700     -0.89039400      0.47239200        8
O       4.42022000      1.36595000      2.86473000     -1.34858200     -1.24205600     -0.35672800        8
O       1.52733000      1.34572000      2.94379000      0.42137300     -0.33389100      1.47834900        8
O       0.04745000      2.78356000      1.48065000     -0.69845600     -0.02815000      0.59758200        8
O       3.02373000      5.70256000      4.34788000     -1.10692000      1.16490600     -1.62577700        8
O       4.36955000      4.12987000      5.76959000     -0.31218300      0.90931200      1.51843400        8
O       1.47973000      4.18594000      5.87282000     -0.11331000      1.76955200      0.32754700        8
O       2.91924000      2.80522000      4.38668000      0.31904800      0.00323300      2.18811600        8
O       2.91691000      2.75473000      1.41276000      1.95765000     -0.23284900      0.30052300        8
O       1.49907000      4.29755000      2.79671000     -0.42515200     -0.36277800      0.69003700        8
O       4.44172000      4.27586000      2.98270000     -0.36845200     -0.00771300     -1.28893600        8
O       2.97746000      5.78576000      1.54277000      0.81738800     -0.18881700     -0.42955200        8
48
TotEnergy=-246.00890071 pbc="T T T" Lattice="5.64000000 0.00000000 0.00000000 0.00000000 5.64000000 0.00000000 0.00000000 0.00000000 5.66820000" Properties=species:S:1:pos:R:3:force:R:3:Z:I:1
H       0.50799000      2.34799000      5.00164000      0.24544200     -0.49650300     -1.29116600        1
H       5.00412000      3.48754000      4.78564000      2.05961400     -0.96252100     -0.49862600        1
H       1.87139000      2.04750000      0.36155000      0.20179000     -1.13677200     -0.50348500        1
H       0.82962000      0.87100000      0.60742000     -0.04348000     -0.05999800     -1.28976200        1
H       4.82210000      1.09832000      5.02824000      1.06609200     -1.40180600     -0.58829500        1
H       3.65979000      2.01841000      5.05625000     -0.00733200      0.31685400      0.35819700        1
H       0.94173000      0.92862000      3.40259000     -0.05376500     -0.10239100      0.36337800        1
H       2.29083000      2.44356000      3.71324000      1.20843000     -0.18206600      1.11540200        1
H       3.43481000      2.01067000      2.15475000      1.92714600     -0.21931800      0.73885700        1
H       4.91707000      0.64568000      2.03221000     -0.10706200      0.86345500     -0.04411400        1
H       4.77999000      2.05203000      3.26571000      0.46466900      0.39401600      0.74574400        1
H       0.86686000      3.47346000      3.27920000      0.51362600      1.63978700      0.25640500        1
H       4.68867000      3.62195000      2.31435000      1.27297600     -0.34724600     -0.37557500        1
H       0.99111000      1.98924000      2.29895000     -0.25487900      0.24733400     -0.28764200        1
H       0.55996000      3.41921000      0.90976000      0.12209600      0.07287900     -0.22749000        1
H       4.93691000      2.40310000      0.84306000      1.19310400     -0.65994500      0.64052300        1
H       3.85038000      4.81492000      4.98342000     -0.18471400      0.46708900      1.59438700        1
H       2.21444000      0.71444000      4.65526000     -0.03724400     -1.76579200      1.06291000        1
H       4.84577000      4.91992000      0.63331000      1.49823000      1.86367400      1.35760100        1
H       3.27955000      3.42926000      0.86576000      1.36875400     -0.06240200     -1.10119400        1
H       1.92132000      3.76917000      5.03270000      2.02636400     -0.71517700     -0.73797900        1
H       0.45342000      5.11208000      4.78453000      0.48944800      0.02439000      0.02725000        1
H       3.37430000      3.60500000      3.73980000      0.58415300     -0.89553600      0.50479700        1
H       4.90520000      5.09195000      3.77091000      1.92450800      1.16258300     -0.46282500        1
H       0.48509000      5.24341000      2.13260000     -0.29981700     -0.31844200     -0.78396600        1
H       2.27444000      3.46785000      1.93832000     -0.25249900     -0.97257900      0.30678100        1