   6   6   0   0
  0.3696791E+01  0.2809692E-09  0.2809692E-09  0.2809692E-09  0.5000000E-15
  1.000000000000000E-004
  CAR 
 unknown system                          
     21.32997712    -19.68799762  301      5.09369545      1.00000000
    -19.688  0.0000E+00  0.0000E+00
    -19.551  0.0000E+00  0.0000E+00
    -19.415  0.0000E+00  0.0000E+00
    -19.278  0.0000E+00  0.0000E+00
    -19.141  0.0000E+00  0.0000E+00
    -19.004  0.0000E+00  0.0000E+00
    -18.868  0.0000E+00  0.0000E+00
    -18.731  0.0000E+00  0.0000E+00
    -18.594  0.0000E+00  0.0000E+00
    -18.457  0.0000E+00  0.0000E+00
    -18.321  0.0000E+00  0.0000E+00
    -18.184  0.0000E+00  0.0000E+00
    -18.047  0.1815E-08  0.2481E-09
    -17.911  0.1013E+00  0.1386E-01
    -17.774  0.1336E+02  0.1840E+01
    -17.637  0.1168E+01  0.2000E+01
    -17.500  0.9791E-06  0.2000E+01
    -17.364  0.0000E+00  0.2000E+01
    -17.227  0.0000E+00  0.2000E+01
    -17.090  0.0000E+00  0.2000E+01
    -16.953  0.0000E+00  0.2000E+01
    -16.817  0.0000E+00  0.2000E+01
    -16.680  0.0000E+00  0.2000E+01
    -16.543  0.0000E+00  0.2000E+01
    -16.407  0.0000E+00  0.2000E+01
    -16.270  0.0000E+00  0.2000E+01
    -16.133  0.0000E+00  0.2000E+01
    -15.996  0.0000E+00  0.2000E+01
    -15.860  0.0000E+00  0.2000E+01
    -15.723  0.0000E+00  0.2000E+01
    -15.586  0.0000E+00  0.2000E+01
    -15.449  0.0000E+00  0.2000E+01
    -15.313  0.0000E+00  0.2000E+01
    -15.176  0.0000E+00  0.2000E+01
    -15.039  0.0000E+00  0.2000E+01
    -14.903  0.0000E+00  0.2000E+01
    -14.766  0.0000E+00  0.2000E+01
    -14.629  0.0000E+00  0.2000E+01
    -14.492  0.0000E+00  0.2000E+01
    -14.356  0.0000E+00  0.2000E+01
    -14.219  0.0000E+00  0.2000E+01
    -14.082  0.0000E+00  0.2000E+01
    -13.945  0.0000E+00  0.2000E+01
    -13.809  0.0000E+00  0.2000E+01
    -13.672  0.0000E+00  0.2000E+01
    -13.535  0.0000E+00  0.2000E+01
    -13.399  0.0000E+00  0.2000E+01
    -13.262  0.0000E+00  0.2000E+01
    -13.125  0.0000E+00  0.2000E+01
    -12.988  0.0000E+00  0.2000E+01
    -12.852  0.0000E+00  0.2000E+01
    -12.715  0.0000E+00  0.2000E+01
    -12.578  0.0000E+00  0.2000E+01
    -12.441  0.0000E+00  0.2000E+01
    -12.305  0.0000E+00  0.2000E+01
    -12.168  0.0000E+00  0.2000E+01
    -12.031  0.0000E+00  0.2000E+01
    -11.895  0.0000E+00  0.2000E+01
    -11.758  0.0000E+00  0.2000E+01
    -11.621  0.0000E+00  0.2000E+01
    -11.484  0.0000E+00  0.2000E+01
    -11.348  0.2909E-08  0.2000E+01
    -11.211  0.1240E+00  0.2017E+01
    -11.074  0.1349E+02  0.3861E+01
    -10.937  0.1017E+01  0.4000E+01
    -10.801  0.6550E-06  0.4000E+01
    -10.664  0.0000E+00  0.4000E+01
    -10.527  0.0000E+00  0.4000E+01
    -10.391  0.0000E+00  0.4000E+01
    -10.254  0.0000E+00  0.4000E+01
    -10.117  0.0000E+00  0.4000E+01
     -9.980  0.0000E+00  0.4000E+01
     -9.844  0.0000E+00  0.4000E+01
     -9.707  0.0000E+00  0.4000E+01
     -9.570  0.0000E+00  0.4000E+01
     -9.434  0.0000E+00  0.4000E+01
     -9.297  0.0000E+00  0.4000E+01
     -9.160  0.0000E+00  0.4000E+01
     -9.023  0.0000E+00  0.4000E+01
     -8.887  0.0000E+00  0.4000E+01
     -8.750  0.0000E+00  0.4000E+01
     -8.613  0.0000E+00  0.4000E+01
     -8.476  0.0000E+00  0.4000E+01
     -8.340  0.0000E+00  0.4000E+01
     -8.203  0.0000E+00  0.4000E+01
     -8.066  0.0000E+00  0.4000E+01
     -7.930  0.0000E+00  0.4000E+01
     -7.793  0.0000E+00  0.4000E+01
     -7.656  0.0000E+00  0.4000E+01
     -7.519  0.0000E+00  0.4000E+01
     -7.383  0.0000E+00  0.4000E+01
     -7.246  0.0000E+00  0.4000E+01
     -7.109  0.0000E+00  0.4000E+01
     -6.972  0.0000E+00  0.4000E+01
     -6.836  0.0000E+00  0.4000E+01
     -6.699  0.0000E+00  0.4000E+01
     -6.562  0.0000E+00  0.4000E+01
     -6.426  0.0000E+00  0.4000E+01
     -6.289  0.0000E+00  0.4000E+01
     -6.152  0.0000E+00  0.4000E+01
     -6.015  0.0000E+00  0.4000E+01
     -5.879  0.0000E+00  0.4000E+01
     -5.742  0.0000E+00  0.4000E+01
     -5.605  0.0000E+00  0.4000E+01
     -5.468  0.0000E+00  0.4000E+01
     -5.332  0.0000E+00  0.4000E+01
     -5.195  0.0000E+00  0.4000E+01
     -5.058  0.0000E+00  0.4000E+01
     -4.922  0.0000E+00  0.4000E+01
     -4.785  0.0000E+00  0.4000E+01
     -4.648  0.0000E+00  0.4000E+01
     -4.511  0.0000E+00  0.4000E+01
     -4.375  0.0000E+00  0.4000E+01
     -4.238  0.0000E+00  0.4000E+01
     -4.101  0.0000E+00  0.4000E+01
     -3.964  0.0000E+00  0.4000E+01
     -3.828  0.0000E+00  0.4000E+01
     -3.691  0.0000E+00  0.4000E+01
     -3.554  0.0000E+00  0.4000E+01
     -3.418  0.0000E+00  0.4000E+01
     -3.281  0.0000E+00  0.4000E+01
     -3.144  0.0000E+00  0.4000E+01
     -3.007  0.0000E+00  0.4000E+01
     -2.871  0.0000E+00  0.4000E+01
     -2.734  0.0000E+00  0.4000E+01
     -2.597  0.9744E-14  0.4000E+01
     -2.460  0.4350E-03  0.4000E+01
     -2.324  0.1513E+02  0.6068E+01
     -2.187  0.2874E+02  0.9998E+01
     -2.050  0.1152E-01  0.1000E+02
     -1.914  0.4874E-11  0.1000E+02
     -1.777  0.0000E+00  0.1000E+02
     -1.640  0.0000E+00  0.1000E+02
     -1.503  0.0000E+00  0.1000E+02
     -1.367  0.0000E+00  0.1000E+02
     -1.230  0.0000E+00  0.1000E+02
     -1.093  0.0000E+00  0.1000E+02
     -0.956  0.0000E+00  0.1000E+02
     -0.820  0.0000E+00  0.1000E+02
     -0.683  0.0000E+00  0.1000E+02
     -0.546  0.0000E+00  0.1000E+02
     -0.410  0.0000E+00  0.1000E+02
     -0.273  0.0000E+00  0.1000E+02
     -0.136  0.0000E+00  0.1000E+02
      0.001  0.0000E+00  0.1000E+02
      0.137  0.0000E+00  0.1000E+02
      0.274  0.0000E+00  0.1000E+02
      0.411  0.0000E+00  0.1000E+02
      0.548  0.0000E+00  0.1000E+02
      0.684  0.0000E+00  0.1000E+02
      0.821  0.0000E+00  0.1000E+02
      0.958  0.0000E+00  0.1000E+02
      1.094  0.0000E+00  0.1000E+02
      1.231  0.0000E+00  0.1000E+02
      1.368  0.0000E+00  0.1000E+02
      1.505  0.0000E+00  0.1000E+02
      1.641  0.0000E+00  0.1000E+02
      1.778  0.0000E+00  0.1000E+02
      1.915  0.0000E+00  0.1000E+02
      2.052  0.0000E+00  0.1000E+02
      2.188  0.0000E+00  0.1000E+02
      2.325  0.0000E+00  0.1000E+02
      2.462  0.0000E+00  0.1000E+02
      2.598  0.0000E+00  0.1000E+02
      2.735  0.0000E+00  0.1000E+02
      2.872  0.0000E+00  0.1000E+02
      3.009  0.0000E+00  0.1000E+02
      3.145  0.0000E+00  0.1000E+02
      3.282  0.0000E+00  0.1000E+02
      3.419  0.0000E+00  0.1000E+02
      3.556  0.0000E+00  0.1000E+02
      3.692  0.0000E+00  0.1000E+02
      3.829  0.0000E+00  0.1000E+02
      3.966  0.0000E+00  0.1000E+02
      4.102  0.0000E+00  0.1000E+02
      4.239  0.0000E+00  0.1000E+02
      4.376  0.0000E+00  0.1000E+02
      4.513  0.0000E+00  0.1000E+02
      4.649  0.1524E-04  0.1000E+02
      4.786  0.5995E+01  0.1082E+02
      4.923  0.3777E+02  0.1598E+02
      5.060  0.1224E+00  0.1600E+02
      5.196  0.6943E-09  0.1600E+02
      5.333  0.0000E+00  0.1600E+02
      5.470  0.0000E+00  0.1600E+02
      5.606  0.0000E+00  0.1600E+02
      5.743  0.0000E+00  0.1600E+02
      5.880  0.0000E+00  0.1600E+02
      6.017  0.0000E+00  0.1600E+02
      6.153  0.0000E+00  0.1600E+02
      6.290  0.0000E+00  0.1600E+02
      6.427  0.0000E+00  0.1600E+02
      6.564  0.0000E+00  0.1600E+02
      6.700  0.0000E+00  0.1600E+02
      6.837  0.0000E+00  0.1600E+02
      6.974  0.0000E+00  0.1600E+02
      7.110  0.0000E+00  0.1600E+02
      7.247  0.0000E+00  0.1600E+02
      7.384  0.0000E+00  0.1600E+02
      7.521  0.0000E+00  0.1600E+02
      7.657  0.0000E+00  0.1600E+02
      7.794  0.0000E+00  0.1600E+02
      7.931  0.0000E+00  0.1600E+02
      8.067  0.0000E+00  0.1600E+02
      8.204  0.0000E+00  0.1600E+02
      8.341  0.0000E+00  0.1600E+02
      8.478  0.0000E+00  0.1600E+02
      8.614  0.0000E+00  0.1600E+02
      8.751  0.0000E+00  0.1600E+02
      8.888  0.0000E+00  0.1600E+02
      9.025  0.0000E+00  0.1600E+02
      9.161  0.0000E+00  0.1600E+02
      9.298  0.0000E+00  0.1600E+02
      9.435  0.0000E+00  0.1600E+02
      9.571  0.0000E+00  0.1600E+02
      9.708  0.0000E+00  0.1600E+02
      9.845  0.0000E+00  0.1600E+02
      9.982  0.0000E+00  0.1600E+02
     10.118  0.0000E+00  0.1600E+02
     10.255  0.0000E+00  0.1600E+02
     10.392  0.0000E+00  0.1600E+02
     10.529  0.0000E+00  0.1600E+02
     10.665  0.0000E+00  0.1600E+02
     10.802  0.0000E+00  0.1600E+02
     10.939  0.0000E+00  0.1600E+02
     11.075  0.0000E+00  0.1600E+02
     11.212  0.0000E+00  0.1600E+02
     11.349  0.0000E+00  0.1600E+02
     11.486  0.0000E+00  0.1600E+02
     11.622  0.0000E+00  0.1600E+02
     11.759  0.0000E+00  0.1600E+02
     11.896  0.7232E-07  0.1600E+02
     12.033  0.4544E+00  0.1606E+02
     12.169  0.1384E+02  0.1795E+02
     12.306  0.3314E+00  0.1800E+02
     12.443  0.3206E-07  0.1800E+02
     12.579  0.0000E+00  0.1800E+02
     12.716  0.0000E+00  0.1800E+02
     12.853  0.0000E+00  0.1800E+02
     12.990  0.0000E+00  0.1800E+02
     13.126  0.0000E+00  0.1800E+02
     13.263  0.0000E+00  0.1800E+02
     13.400  0.0000E+00  0.1800E+02
     13.537  0.0000E+00  0.1800E+02
     13.673  0.0000E+00  0.1800E+02
     13.810  0.0000E+00  0.1800E+02
     13.947  0.0000E+00  0.1800E+02
     14.083  0.0000E+00  0.1800E+02
     14.220  0.0000E+00  0.1800E+02
     14.357  0.0000E+00  0.1800E+02
     14.494  0.0000E+00  0.1800E+02
     14.630  0.0000E+00  0.1800E+02
     14.767  0.1202E-11  0.1800E+02
     14.904  0.4662E-02  0.1800E+02
     15.041  0.1771E+02  0.2042E+02
     15.177  0.1154E+02  0.2200E+02
     15.314  0.5196E-03  0.2200E+02
     15.451  0.0000E+00  0.2200E+02
     15.587  0.0000E+00  0.2200E+02
     15.724  0.0000E+00  0.2200E+02
     15.861  0.0000E+00  0.2200E+02
     15.998  0.0000E+00  0.2200E+02
     16.134  0.0000E+00  0.2200E+02
     16.271  0.0000E+00  0.2200E+02
     16.408  0.0000E+00  0.2200E+02
     16.545  0.0000E+00  0.2200E+02
     16.681  0.0000E+00  0.2200E+02
     16.818  0.0000E+00  0.2200E+02
     16.955  0.0000E+00  0.2200E+02
     17.091  0.0000E+00  0.2200E+02
     17.228  0.0000E+00  0.2200E+02
     17.365  0.0000E+00  0.2200E+02
     17.502  0.0000E+00  0.2200E+02
     17.638  0.0000E+00  0.2200E+02
     17.775  0.0000E+00  0.2200E+02
     17.912  0.0000E+00  0.2200E+02
     18.049  0.0000E+00  0.2200E+02
     18.185  0.0000E+00  0.2200E+02
     18.322  0.0000E+00  0.2200E+02
     18.459  0.0000E+00  0.2200E+02
     18.595  0.0000E+00  0.2200E+02
     18.732  0.0000E+00  0.2200E+02
     18.869  0.0000E+00  0.2200E+02
     19.006  0.0000E+00  0.2200E+02
     19.142  0.0000E+00  0.2200E+02
     19.279  0.9791E-06  0.2200E+02
     19.416  0.1168E+01  0.2216E+02
     19.553  0.1336E+02  0.2399E+02
     19.689  0.1013E+00  0.2400E+02
     19.826  0.1815E-08  0.2400E+02
     19.963  0.0000E+00  0.2400E+02
     20.099  0.0000E+00  0.2400E+02
     20.236  0.0000E+00  0.2400E+02
     20.373  0.0000E+00  0.2400E+02
     20.510  0.0000E+00  0.2400E+02
     20.646  0.0000E+00  0.2400E+02
     20.783  0.0000E+00  0.2400E+02
     20.920  0.0000E+00  0.2400E+02
     21.057  0.0000E+00  0.2400E+02
     21.193  0.0000E+00  0.2400E+02
     21.330  0.0000E+00  0.2400E+02
