    6    6    1    1
  0.3696791E+01  0.2809692E-09  0.2809692E-09  0.2809692E-09  0.5000000E-15
  1.000000000000000E-004
  CAR 
 unknown system                          
     16      1     12
 
  0.0000000E+00  0.0000000E+00  0.0000000E+00  0.1000000E+01
      1        -17.823544   1.000000
      2        -11.126532   1.000000
      3         -2.309684   1.000000
      4         -2.309602   1.000000
      5         -2.309493   1.000000
      6          4.824757   1.000000
      7          4.824776   1.000000
      8          4.824867   1.000000
      9         12.098522   0.000000
     10         15.031093   0.000000
     11         15.031093   0.000000
     12         19.465524   0.000000
