       N       E                     dE             d eps       ncg     rms          rms(c)
DAV:   1     0.123406633750E+03    0.12341E+03   -0.19098E+04    24   0.305E+03
DAV:   2    -0.154936576937E+02   -0.13890E+03   -0.11453E+03    28   0.399E+02
DAV:   3    -0.192035393119E+02   -0.37099E+01   -0.37010E+01    28   0.626E+01
DAV:   4    -0.192243276139E+02   -0.20788E-01   -0.20787E-01    24   0.447E+00
DAV:   5    -0.192246242887E+02   -0.29667E-03   -0.29667E-03    28   0.416E-01    0.124E+01
RMM:   6    -0.153620700973E+02    0.38626E+01   -0.10724E+01    24   0.284E+01    0.408E+00
RMM:   7    -0.154781752092E+02   -0.11611E+00   -0.16150E+00    24   0.119E+01    0.262E+00
RMM:   8    -0.156360060448E+02   -0.15783E+00   -0.11807E-01    24   0.498E+00    0.773E-01
RMM:   9    -0.156309806522E+02    0.50254E-02   -0.15175E-02    25   0.124E+00    0.104E-01
RMM:  10    -0.156315402311E+02   -0.55958E-03   -0.32998E-03    24   0.540E-01    0.886E-02
RMM:  11    -0.156315081893E+02    0.32042E-04   -0.22151E-04    24   0.197E-01    0.146E-02
RMM:  12    -0.156315062993E+02    0.18899E-05   -0.15510E-05    24   0.480E-02    0.720E-03
RMM:  13    -0.156315071760E+02   -0.87663E-06   -0.63907E-06    22   0.284E-02
   1 F= -.16806101E+02 E0= -.16806101E+02  d E =-.232747E-13
