<?xml version="1.0" encoding="ISO-8859-1"?>
<modeling>
 <generator>
  <i name="program" type="string">vasp </i>
  <i name="version" type="string">6.4.3  </i>
  <i name="subversion" type="string">19Mar24 (build Jun 21 2025 18:38:16) complex                          parallel </i>
  <i name="platform" type="string">LinuxIFC </i>
  <i name="date" type="string">2025 06 26 </i>
  <i name="time" type="string">13:54:22 </i>
 </generator>
 <incar>
  <i type="string" name="PREC">A</i>
  <i type="string" name="ALGO">fast</i>
  <i type="int" name="NELMIN">     4</i>
  <i type="int" name="IBRION">    -1</i>
  <i name="EDIFF">      0.00000100</i>
  <i type="int" name="NSW">     0</i>
  <i type="int" name="ISIF">     2</i>
  <i type="int" name="ISYM">     0</i>
  <i name="ENCUT">   1500.00000000</i>
  <i type="logical" name="LREAL"> F  </i>
  <i type="int" name="ISMEAR">     0</i>
  <i name="SIGMA">      0.05000000</i>
  <i name="PSTRESS">      0.00000000</i>
  <i type="logical" name="LWAVE"> F  </i>
  <i type="logical" name="LCHARG"> F  </i>
  <i type="logical" name="LASPH"> T  </i>
  <i type="string" name="GGA">RE</i>
  <i type="int" name="IVDW">    12</i>
 </incar>
 <primitive_cell>
  <structure name="primitive_cell" >
   <crystal>
    <varray name="basis" >
     <v>       2.80969200       0.00000000       0.00000000 </v>
     <v>       0.00000000       2.80969200       0.00000000 </v>
     <v>       0.00000000       0.00000000       2.80969200 </v>
    </varray>
    <i name="volume">     22.18074580 </i>
    <varray name="rec_basis" >
     <v>       0.35591090       0.00000000       0.00000000 </v>
     <v>       0.00000000       0.35591090       0.00000000 </v>
     <v>       0.00000000       0.00000000       0.35591090 </v>
    </varray>
   </crystal>
   <varray name="positions" >
    <v>       0.75000000       0.75000000       0.25000000 </v>
    <v>       0.25000000       0.25000000       0.25000000 </v>
    <v>       0.25000000       0.75000000       0.75000000 </v>
    <v>       0.75000000       0.25000000       0.75000000 </v>
    <v>       0.00000000       0.00000000       0.00000000 </v>
    <v>       0.50000000       0.50000000       0.50000000 </v>
   </varray>
  </structure>
  <varray name="primitive_index" >
   <v type="int" >        1 </v>
   <v type="int" >        2 </v>
   <v type="int" >        3 </v>
   <v type="int" >        4 </v>
   <v type="int" >        5 </v>
   <v type="int" >        6 </v>
  </varray>
 </primitive_cell>
 <kpoints>
  <generation param="Gamma">
   <v type="int" name="divisions">       1        1        1 </v>
   <v name="usershift">      0.00000000       0.00000000       0.00000000 </v>
   <v name="genvec1">      1.00000000       0.00000000       0.00000000 </v>
   <v name="genvec2">      0.00000000       1.00000000       0.00000000 </v>
   <v name="genvec3">      0.00000000       0.00000000       1.00000000 </v>
   <v name="shift">      0.00000000       0.00000000       0.00000000 </v>
  </generation>
  <varray name="kpointlist" >
   <v>       0.00000000       0.00000000       0.00000000 </v>
  </varray>
  <varray name="weights" >
   <v>       1.00000000 </v>
  </varray>
 </kpoints>
 <parameters>
  <separator name="general" >
   <i type="string" name="SYSTEM">unknown system</i>
   <i type="logical" name="LCOMPAT"> F  </i>
  </separator>
  <separator name="electronic" >
   <i type="string" name="PREC">a</i>
   <i name="ENMAX">   1500.00000000</i>
   <i name="ENAUG">    605.39200000</i>
   <i name="EDIFF">      0.00000100</i>
   <i type="int" name="IALGO">    68</i>
   <i type="int" name="IWAVPR">    10</i>
   <i type="int" name="NBANDS">    12</i>
   <i type="int" name="NBANDSLOW">    -1</i>
   <i type="int" name="NBANDSHIGH">    -1</i>
   <i name="NELECT">     16.00000000</i>
   <i type="int" name="TURBO">     0</i>
   <i type="int" name="IRESTART">     0</i>
   <i type="int" name="NREBOOT">     0</i>
   <i type="int" name="NMIN">     0</i>
   <i name="EREF">      0.00000000</i>
   <separator name="electronic smearing" >
    <i type="int" name="ISMEAR">     0</i>
    <i name="SIGMA">      0.05000000</i>
    <i name="KSPACING">      0.50000000</i>
    <i type="logical" name="KGAMMA"> T  </i>
    <i type="logical" name="KBLOWUP"> T  </i>
   </separator>
   <separator name="electronic projectors" >
    <i type="logical" name="LREAL"> F  </i>
    <v name="ROPT">      0.00000000      0.00000000</v>
    <i type="int" name="LMAXPAW">  -100</i>
    <i type="int" name="LMAXMIX">     2</i>
    <i type="logical" name="NLSPLINE"> F  </i>
   </separator>
   <separator name="electronic startup" >
    <i type="int" name="ISTART">     0</i>
    <i type="int" name="ICHARG">     2</i>
    <i type="int" name="INIWAV">     1</i>
   </separator>
   <separator name="electronic spin" >
    <i type="int" name="ISPIN">     1</i>
    <i type="logical" name="LNONCOLLINEAR"> F  </i>
    <v name="MAGMOM">      1.00000000      1.00000000      1.00000000      1.00000000      1.00000000      1.00000000</v>
    <i name="NUPDOWN">     -1.00000000</i>
    <i type="logical" name="LSORBIT"> F  </i>
    <v name="SAXIS">      0.00000000      0.00000000      1.00000000</v>
    <i type="logical" name="LSPIRAL"> F  </i>
    <v name="QSPIRAL">      0.00000000      0.00000000      0.00000000</v>
    <i type="logical" name="LZEROZ"> F  </i>
   </separator>
   <separator name="electronic exchange-correlation" >
    <i type="logical" name="LASPH"> T  </i>
   </separator>
   <separator name="electronic convergence" >
    <i type="int" name="NELM">    60</i>
    <i type="int" name="NELMDL">    -5</i>
    <i type="int" name="NELMIN">     4</i>
    <i name="ENINI">   1500.00000000</i>
    <separator name="electronic convergence detail" >
     <i type="logical" name="LDIAG"> T  </i>
     <i type="logical" name="LSUBROT"> F  </i>
     <i name="WEIMIN">      0.00000000</i>
     <i name="EBREAK">      0.00000002</i>
     <i name="DEPER">      0.30000000</i>
     <i type="int" name="NRMM">     4</i>
     <i name="TIME">      0.40000000</i>
    </separator>
   </separator>
   <separator name="electronic mixer" >
    <i name="AMIX">      0.40000000</i>
    <i name="BMIX">      1.00000000</i>
    <i name="AMIN">      0.10000000</i>
    <i name="AMIX_MAG">      1.60000000</i>
    <i name="BMIX_MAG">      1.00000000</i>
    <separator name="electronic mixer details" >
     <i type="int" name="IMIX">     4</i>
     <i type="logical" name="MIXFIRST"> F  </i>
     <i type="int" name="MAXMIX">   -45</i>
     <i name="WC">    100.00000000</i>
     <i type="int" name="INIMIX">     1</i>
     <i type="int" name="MIXPRE">     1</i>
     <i type="int" name="MREMOVE">     5</i>
    </separator>
   </separator>
   <separator name="electronic dipolcorrection" >
    <i type="logical" name="LDIPOL"> F  </i>
    <i type="logical" name="LMONO"> F  </i>
    <i type="int" name="IDIPOL">     0</i>
    <i name="EPSILON">      1.00000000</i>
    <v name="DIPOL">   -100.00000000   -100.00000000   -100.00000000</v>
    <i name="EFIELD">      0.00000000</i>
    <i type="logical" name="LVACPOTAV"> F  </i>
   </separator>
  </separator>
  <separator name="grids" >
   <i type="int" name="NGX">    36</i>
   <i type="int" name="NGY">    36</i>
   <i type="int" name="NGZ">    36</i>
   <i type="int" name="NGXF">    72</i>
   <i type="int" name="NGYF">    72</i>
   <i type="int" name="NGZF">    72</i>
   <i type="logical" name="ADDGRID"> F  </i>
  </separator>
  <separator name="ionic" >
   <i type="int" name="NSW">     0</i>
   <i type="int" name="IBRION">    -1</i>
   <i type="int" name="MDALGO">     0</i>
   <i type="int" name="ISIF">     2</i>
   <i name="PSTRESS">      0.00000000</i>
   <i name="EDIFFG">      0.00001000</i>
   <i type="int" name="NFREE">     0</i>
   <i name="POTIM">      0.50000000</i>
   <i name="SMASS">     -3.00000000</i>
   <i name="SCALEE">      1.00000000</i>
  </separator>
  <separator name="ionic md" >
   <i name="TEBEG">      0.00010000</i>
   <i name="TEEND">      0.00010000</i>
   <i type="int" name="NBLOCK">     1</i>
   <i type="int" name="KBLOCK">     1</i>
   <i type="int" name="NPACO">   256</i>
   <i name="APACO">     10.00000000</i>
  </separator>
  <separator name="symmetry" >
   <i type="int" name="ISYM">     0</i>
   <i name="SYMPREC">      0.00001000</i>
  </separator>
  <separator name="dos" >
   <i type="int" name="LORBIT">     0</i>
   <v name="RWIGS">     -1.00000000     -1.00000000</v>
   <i type="int" name="NEDOS">   301</i>
   <i name="EMIN">     10.00000000</i>
   <i name="EMAX">    -10.00000000</i>
   <i name="EFERMI">      0.00000000</i>
  </separator>
  <separator name="writing" >
   <i type="int" name="NWRITE">     2</i>
   <i type="logical" name="LWAVE"> F  </i>
   <i type="logical" name="LDOWNSAMPLE"> F  </i>
   <i type="logical" name="LCHARG"> F  </i>
   <i type="logical" name="LPARD"> F  </i>
   <i type="logical" name="LVTOT"> F  </i>
   <i type="logical" name="LVHAR"> F  </i>
   <i type="logical" name="LELF"> F  </i>
   <i type="logical" name="LOPTICS"> F  </i>
   <v name="STM">      0.00000000      0.00000000      0.00000000      0.00000000      0.00000000      0.00000000      0.00000000</v>
  </separator>
  <separator name="performance" >
   <i type="int" name="NPAR">     1</i>
   <i type="int" name="NSIM">     4</i>
   <i type="int" name="NBLK">    -1</i>
   <i type="logical" name="LPLANE"> T  </i>
   <i type="logical" name="LSCALAPACK"> T  </i>
   <i type="logical" name="LSCAAWARE"> F  </i>
   <i type="logical" name="LSCALU"> F  </i>
   <i type="logical" name="LASYNC"> F  </i>
   <i type="logical" name="LORBITALREAL"> F  </i>
  </separator>
  <separator name="miscellaneous" >
   <i type="int" name="IDIOT">     3</i>
   <i type="int" name="PHON_NSTRUCT">    -1</i>
   <i type="logical" name="LMUSIC"> F  </i>
   <v name="POMASS">      1.00000000     16.00000000</v>
   <v name="DARWINR">      0.00000000      0.00000000</v>
   <v name="DARWINV">      1.00000000      1.00000000</v>
   <i type="logical" name="LCORR"> T  </i>
  </separator>
  <i type="logical" name="GGA_COMPAT"> T  </i>
  <i type="logical" name="LBERRY"> F  </i>
  <i type="int" name="ICORELEVEL">     0</i>
  <i type="logical" name="LDAU"> F  </i>
  <i type="int" name="I_CONSTRAINED_M">     0</i>
  <separator name="electronic exchange-correlation" >
   <i type="string" name="GGA    ">RE</i>
   <i type="string" name="XC_C">1</i>
   <i type="int" name="VOSKOWN">     0</i>
   <i type="logical" name="LHFCALC"> F  </i>
   <i type="string" name="PRECFOCK"></i>
   <i type="logical" name="LSYMGRAD"> F  </i>
   <i type="logical" name="LHFONE"> F  </i>
   <i type="logical" name="LRHFCALC"> F  </i>
   <i type="logical" name="LTHOMAS"> F  </i>
   <i type="logical" name="LMODELHF"> F  </i>
   <i type="logical" name="LFOCKACE"> F  </i>
   <i name="ENCUT4O">     -1.00000000</i>
   <i type="int" name="EXXOEP">     0</i>
   <i type="int" name="FOURORBIT">     0</i>
   <i name="AEXX">      0.00000000</i>
   <i name="HFALPHA">      0.00000000</i>
   <i name="MCALPHA">      0.00000000</i>
   <i name="ALDAX">      1.00000000</i>
   <i name="AGGAX">      1.00000000</i>
   <i name="AMGGAX">      1.00000000</i>
   <i name="ALDAC">      1.00000000</i>
   <i name="AGGAC">      1.00000000</i>
   <i name="AMGGAC">      1.00000000</i>
   <i type="int" name="NKREDX">     1</i>
   <i type="int" name="NKREDY">     1</i>
   <i type="int" name="NKREDZ">     1</i>
   <i type="logical" name="SHIFTRED"> F  </i>
   <i type="logical" name="ODDONLY"> F  </i>
   <i type="logical" name="EVENONLY"> F  </i>
   <i type="int" name="LMAXFOCK">     0</i>
   <i type="int" name="NMAXFOCKAE">     0</i>
   <i type="logical" name="LFOCKAEDFT"> F  </i>
   <i name="HFSCREEN">      0.00000000</i>
   <i name="HFSCREENC">      0.00000000</i>
   <i type="int" name="NBANDSGWLOW">     0</i>
  </separator>
  <separator name="vdW DFT" >
   <i type="logical" name="LUSE_VDW"> F  </i>
   <i type="int" name="IVDW_NL">    -1</i>
   <i type="logical" name="LSPIN_VDW"> F  </i>
   <i name="ZAB_VDW">     -0.84910000</i>
   <i name="GAMMA_VDW">      1.39626340</i>
   <i name="ALPHA_VDW">      0.00000000</i>
   <i name="PARAM1">      0.12340000</i>
   <i name="PARAM2">      1.00000000</i>
   <i name="BPARAM">      6.30000000</i>
   <i name="CPARAM">      0.00930000</i>
  </separator>
  <separator name="model GW" >
   <i type="int" name="MODEL_GW">     0</i>
   <i name="MODEL_EPS0">      2.21807458</i>
   <i name="MODEL_ALPHA">      1.00000000</i>
  </separator>
  <separator name="linear response parameters" >
   <i type="logical" name="LEPSILON"> F  </i>
   <i type="logical" name="LRPA"> F  </i>
   <i type="logical" name="LNABLA"> F  </i>
   <i type="logical" name="LVEL"> F  </i>
   <i name="CSHIFT">      0.10000000</i>
   <i name="OMEGAMAX">     -1.00000000</i>
   <i name="DEG_THRESHOLD">      0.00200000</i>
   <i name="RTIME">     -0.10000000</i>
   <i name="WPLASMAI">      0.00000000</i>
   <v name="DFIELD">      0.00000000      0.00000000      0.00000000</v>
   <v name="WPLASMA">      0.00000000      0.00000000      0.00000000      0.00000000      0.00000000      0.00000000      0.00000000      0.00000000      0.00000000</v>
  </separator>
  <separator name="orbital magnetization" >
   <i type="logical" name="NUCIND"> F  </i>
   <v name="MAGPOS">      0.00000000      0.00000000      0.00000000</v>
   <i type="logical" name="LNICSALL"> T  </i>
   <i type="logical" name="ORBITALMAG"> F  </i>
   <i type="logical" name="LMAGBLOCH"> F  </i>
   <i type="logical" name="LCHIMAG"> F  </i>
   <i type="logical" name="LGAUGE"> T  </i>
   <i type="int" name="MAGATOM">     0</i>
   <v name="MAGDIPOL">      0.00000000      0.00000000      0.00000000</v>
   <v name="AVECCONST">      0.00000000      0.00000000      0.00000000</v>
  </separator>
  <separator name="response functions" >
   <i type="logical" name="LALL_IN_ONE"> F  </i>
   <i type="int" name="IALL_IN_ONE">    -1</i>
   <i type="int" name="NBANDS_WAVE">    -1</i>
   <i type="logical" name="LFINITE_TEMPERATURE"> F  </i>
   <i type="logical" name="LADDER"> F  </i>
   <i type="logical" name="LRPAFORCE"> F  </i>
   <i type="logical" name="LFXC"> F  </i>
   <i type="logical" name="LHARTREE"> T  </i>
   <i type="int" name="IBSE">     0</i>
   <v type="int" name="KPOINT">    -1     0     0     0</v>
   <i type="logical" name="LTCTC"> F  </i>
   <i type="logical" name="LTCTE"> F  </i>
   <i type="logical" name="LTETE"> F  </i>
   <i type="logical" name="LTRIPLET"> F  </i>
   <i type="logical" name="LFXCEPS"> F  </i>
   <i type="logical" name="LFXHEG"> F  </i>
   <i type="int" name="NATURALO">     2</i>
   <i type="logical" name="LHOLEGF"> F  </i>
   <i type="logical" name="L2ORDER"> F  </i>
   <i type="logical" name="LDMP1"> F  </i>
   <i type="logical" name="LMP2LT"> F  </i>
   <i type="logical" name="LSMP2LT"> F  </i>
   <i type="logical" name="LGWLF"> F  </i>
   <i name="ENCUTGW">     -1.60000002</i>
   <i name="ENCUTGWSOFT">     -1.60000002</i>
   <i name="ENCUTLF">     -1.00000000</i>
   <i type="logical" name="ESF_SPLINES"> F  </i>
   <i name="ESF_CONV">      0.01000000</i>
   <i type="int" name="ESF_NINTER">    15</i>
   <i type="int" name="LMAXMP2">    -1</i>
   <i name="SCISSOR">      0.00000000</i>
   <i type="int" name="NOMEGA">     0</i>
   <i type="int" name="NOMEGAR">     0</i>
   <i type="int" name="NBANDSGW">    -1</i>
   <i type="int" name="NBANDSO">    -1</i>
   <i type="int" name="NBANDSV">    -1</i>
   <i type="int" name="NELMGW">     1</i>
   <i type="int" name="NELMHF">     1</i>
   <i type="int" name="DIM">     3</i>
   <i type="int" name="IESPILON">     4</i>
   <i type="int" name="ANTIRES">     0</i>
   <i name="OMEGAMAX">    -30.00000000</i>
   <i name="OMEGAMIN">    -30.00000000</i>
   <i name="OMEGATL">   -200.00000000</i>
   <i type="int" name="OMEGAGRID">     0</i>
   <i name="CSHIFT">     -0.10000000</i>
   <i type="logical" name="LSELFENERGY"> F  </i>
   <i type="logical" name="LSPECTRAL"> F  </i>
   <i type="logical" name="LSPECTRALGW"> F  </i>
   <i type="logical" name="LSINGLES"> F  </i>
   <i type="logical" name="LFERMIGW"> F  </i>
   <i type="logical" name="ODDONLYGW"> F  </i>
   <i type="logical" name="EVENONLYGW"> F  </i>
   <i type="int" name="NKREDLFX">     1</i>
   <i type="int" name="NKREDLFY">     1</i>
   <i type="int" name="NKREDLFZ">     1</i>
   <i type="int" name="MAXMEM">  2800</i>
   <i type="int" name="TELESCOPE">     0</i>
   <i type="int" name="NTAUPAR">    -1</i>
   <i type="int" name="NOMEGAPAR">    -1</i>
   <i name="DAMP_NEWTON">      0.80000001</i>
   <i name="LAMBDA">      1.00000000</i>
  </separator>
  <separator name="External order field" >
   <i name="OFIELD_KAPPA">      0.00000000</i>
   <v name="OFIELD_K">      0.00000000      0.00000000      0.00000000</v>
   <i name="OFIELD_Q6_NEAR">      0.00000000</i>
   <i name="OFIELD_Q6_FAR">      0.00000000</i>
   <i name="OFIELD_A">      0.00000000</i>
  </separator>
  <separator name="optional k-points parameters" >
   <i type="int" name="KPOINTS_OPT_MODE">     1</i>
   <i type="logical" name="LKPOINTS_OPT"> F  </i>
  </separator>
 </parameters>
 <atominfo>
  <atoms>       6 </atoms>
  <types>       2 </types>
  <array name="atoms" >
   <dimension dim="1">ion</dimension>
   <field type="string">element</field>
   <field type="int">atomtype</field>
   <set>
    <rc><c>H </c><c>   1</c></rc>
    <rc><c>H </c><c>   1</c></rc>
    <rc><c>H </c><c>   1</c></rc>
    <rc><c>H </c><c>   1</c></rc>
    <rc><c>O </c><c>   2</c></rc>
    <rc><c>O </c><c>   2</c></rc>
   </set>
  </array>
  <array name="atomtypes" >
   <dimension dim="1">type</dimension>
   <field type="int">atomspertype</field>
   <field type="string">element</field>
   <field>mass</field>
   <field>valence</field>
   <field type="string">pseudopotential</field>
   <set>
    <rc><c>   4</c><c>H </c><c>      1.00000000</c><c>      1.00000000</c><c>  PAW_PBE H 15Jun2001                   </c></rc>
    <rc><c>   2</c><c>O </c><c>     16.00000000</c><c>      6.00000000</c><c>  PAW_PBE O 08Apr2002                   </c></rc>
   </set>
  </array>
 </atominfo>
 <structure name="initialpos" >
  <crystal>
   <varray name="basis" >
    <v>       2.80969200       0.00000000       0.00000000 </v>
    <v>       0.00000000       2.80969200       0.00000000 </v>
    <v>       0.00000000       0.00000000       2.80969200 </v>
   </varray>
   <i name="volume">     22.18074580 </i>
   <varray name="rec_basis" >
    <v>       0.35591090       0.00000000       0.00000000 </v>
    <v>       0.00000000       0.35591090       0.00000000 </v>
    <v>       0.00000000       0.00000000       0.35591090 </v>
   </varray>
  </crystal>
  <varray name="positions" >
   <v>       0.75000000       0.75000000       0.25000000 </v>
   <v>       0.25000000       0.25000000       0.25000000 </v>
   <v>       0.25000000       0.75000000       0.75000000 </v>
   <v>       0.75000000       0.25000000       0.75000000 </v>
   <v>       0.00000000       0.00000000       0.00000000 </v>
   <v>       0.50000000       0.50000000       0.50000000 </v>
  </varray>
 </structure>
 <calculation>
  <scstep>
   <time name="dav">    0.03    0.03</time>
   <time name="total">    0.32    0.32</time>
   <energy>
    <i name="alphaZ">     40.44071196 </i>
    <i name="ewald">   -767.75865402 </i>
    <i name="hartreedc">   -176.87332325 </i>
    <i name="XCdc">     67.93745324 </i>
    <i name="pawpsdc">    701.99784820 </i>
    <i name="pawaedc">   -704.63961204 </i>
    <i name="eentropy">     -0.00000000 </i>
    <i name="bandstr">     48.00749366 </i>
    <i name="atom">    914.29471601 </i>
    <i name="e_fr_energy">    123.40663375 </i>
    <i name="e_wo_entrp">    123.40663375 </i>
    <i name="e_0_energy">    123.40663375 </i>
   </energy>
  </scstep>
  <scstep>
   <time name="dav">    0.03    0.03</time>
   <time name="total">    0.03    0.03</time>
   <energy>
    <i name="e_fr_energy">    -15.49365769 </i>
    <i name="e_wo_entrp">    -15.49365769 </i>
    <i name="e_0_energy">    -15.49365769 </i>
   </energy>
  </scstep>
  <scstep>
   <time name="dav">    0.03    0.03</time>
   <time name="total">    0.03    0.03</time>
   <energy>
    <i name="e_fr_energy">    -19.20353931 </i>
    <i name="e_wo_entrp">    -19.20353931 </i>
    <i name="e_0_energy">    -19.20353931 </i>
   </energy>
  </scstep>
  <scstep>
   <time name="dav">    0.02    0.02</time>
   <time name="total">    0.02    0.02</time>
   <energy>
    <i name="e_fr_energy">    -19.22432761 </i>
    <i name="e_wo_entrp">    -19.22432761 </i>
    <i name="e_0_energy">    -19.22432761 </i>
   </energy>
  </scstep>
  <scstep>
   <time name="dav">    0.03    0.03</time>
   <time name="total">    0.04    0.04</time>
   <energy>
    <i name="e_fr_energy">    -19.22462429 </i>
    <i name="e_wo_entrp">    -19.22462429 </i>
    <i name="e_0_energy">    -19.22462429 </i>
   </energy>
  </scstep>
  <scstep>
   <time name="diag">    0.01    0.01</time>
   <time name="diis">    0.02    0.02</time>
   <time name="orth">    0.00    0.00</time>
   <time name="total">    0.34    0.34</time>
   <energy>
    <i name="e_fr_energy">    -15.36207010 </i>
    <i name="e_wo_entrp">    -15.36207010 </i>
    <i name="e_0_energy">    -15.36207010 </i>
   </energy>
  </scstep>
  <scstep>
   <time name="diag">    0.01    0.01</time>
   <time name="diis">    0.02    0.02</time>
   <time name="orth">    0.00    0.00</time>
   <time name="total">    0.33    0.33</time>
   <energy>
    <i name="e_fr_energy">    -15.47817521 </i>
    <i name="e_wo_entrp">    -15.47817521 </i>
    <i name="e_0_energy">    -15.47817521 </i>
   </energy>
  </scstep>
  <scstep>
   <time name="diag">    0.01    0.01</time>
   <time name="diis">    0.02    0.02</time>
   <time name="orth">    0.00    0.00</time>
   <time name="total">    0.33    0.33</time>
   <energy>
    <i name="e_fr_energy">    -15.63600604 </i>
    <i name="e_wo_entrp">    -15.63600604 </i>
    <i name="e_0_energy">    -15.63600604 </i>
   </energy>
  </scstep>
  <scstep>
   <time name="diag">    0.01    0.01</time>
   <time name="diis">    0.02    0.02</time>
   <time name="orth">    0.00    0.00</time>
   <time name="total">    0.33    0.33</time>
   <energy>
    <i name="e_fr_energy">    -15.63098065 </i>
    <i name="e_wo_entrp">    -15.63098065 </i>
    <i name="e_0_energy">    -15.63098065 </i>
   </energy>
  </scstep>
  <scstep>
   <time name="diag">    0.00    0.01</time>
   <time name="diis">    0.02    0.02</time>
   <time name="orth">    0.00    0.00</time>
   <time name="total">    0.33    0.33</time>
   <energy>
    <i name="e_fr_energy">    -15.63154023 </i>
    <i name="e_wo_entrp">    -15.63154023 </i>
    <i name="e_0_energy">    -15.63154023 </i>
   </energy>
  </scstep>
  <scstep>
   <time name="diag">    0.01    0.01</time>
   <time name="diis">    0.02    0.02</time>
   <time name="orth">    0.00    0.00</time>
   <time name="total">    0.33    0.33</time>
   <energy>
    <i name="e_fr_energy">    -15.63150819 </i>
    <i name="e_wo_entrp">    -15.63150819 </i>
    <i name="e_0_energy">    -15.63150819 </i>
   </energy>
  </scstep>
  <scstep>
   <time name="diag">    0.01    0.01</time>
   <time name="diis">    0.02    0.02</time>
   <time name="orth">    0.00    0.00</time>
   <time name="total">    0.33    0.33</time>
   <energy>
    <i name="e_fr_energy">    -15.63150630 </i>
    <i name="e_wo_entrp">    -15.63150630 </i>
    <i name="e_0_energy">    -15.63150630 </i>
   </energy>
  </scstep>
  <scstep>
   <time name="diag">    0.01    0.01</time>
   <time name="diis">    0.02    0.02</time>
   <time name="orth">    0.00    0.00</time>
   <time name="total">    0.32    0.32</time>
   <energy>
    <i name="alphaZ">     40.44071196 </i>
    <i name="ewald">   -767.75865402 </i>
    <i name="hartreedc">   -227.01253608 </i>
    <i name="XCdc">     71.53087803 </i>
    <i name="pawpsdc">   1193.97920535 </i>
    <i name="pawaedc">  -1198.29691802 </i>
    <i name="eentropy">     -0.00000000 </i>
    <i name="bandstr">    -42.80891041 </i>
    <i name="atom">    914.29471601 </i>
    <i name="e_fr_energy">    -15.63150718 </i>
    <i name="e_wo_entrp">    -15.63150718 </i>
    <i name="e_0_energy">    -15.63150718 </i>
   </energy>
  </scstep>
  <structure>
   <crystal>
    <varray name="basis" >
     <v>       2.80969200       0.00000000       0.00000000 </v>
     <v>       0.00000000       2.80969200       0.00000000 </v>
     <v>       0.00000000       0.00000000       2.80969200 </v>
    </varray>
    <i name="volume">     22.18074580 </i>
    <varray name="rec_basis" >
     <v>       0.35591090       0.00000000       0.00000000 </v>
     <v>       0.00000000       0.35591090       0.00000000 </v>
     <v>       0.00000000       0.00000000       0.35591090 </v>
    </varray>
   </crystal>
   <varray name="positions" >
    <v>       0.75000000       0.75000000       0.25000000 </v>
    <v>       0.25000000       0.25000000       0.25000000 </v>
    <v>       0.25000000       0.75000000       0.75000000 </v>
    <v>       0.75000000       0.25000000       0.75000000 </v>
    <v>       0.00000000       0.00000000       0.00000000 </v>
    <v>       0.50000000       0.50000000       0.50000000 </v>
   </varray>
  </structure>
  <varray name="forces" >
   <v>      -0.00003072      -0.00002304       0.00002095 </v>
   <v>      -0.00000479       0.00000090       0.00003186 </v>
   <v>      -0.00001990       0.00001849       0.00000978 </v>
   <v>      -0.00001960       0.00002098       0.00001346 </v>
   <v>       0.00037565       0.00023025      -0.00019994 </v>
   <v>      -0.00030064      -0.00024757       0.00012387 </v>
  </varray>
  <varray name="stress" >
   <v>    1171.05745376       0.01564265      -0.02088832 </v>
   <v>       0.01564244    1170.98243584      -0.02186006 </v>
   <v>      -0.02088837      -0.02186003    1170.98414983 </v>
  </varray>
  <energy>
   <i name="e_fr_energy">    -16.80610112 </i>
   <i name="e_wo_entrp">    -16.80610112 </i>
   <i name="e_0_energy">    -16.80610112 </i>
  </energy>
  <time name="totalsc">    3.86    3.87</time>
  <eigenvalues>
   <array>
    <dimension dim="1">band</dimension>
    <dimension dim="2">kpoint</dimension>
    <dimension dim="3">spin</dimension>
    <field>eigene</field>
    <field>occ</field>
    <set>
     <set comment="spin 1">
      <set comment="kpoint 1">
       <r>  -17.8235    1.0000 </r>
       <r>  -11.1265    1.0000 </r>
       <r>   -2.3097    1.0000 </r>
       <r>   -2.3096    1.0000 </r>
       <r>   -2.3095    1.0000 </r>
       <r>    4.8248    1.0000 </r>
       <r>    4.8248    1.0000 </r>
       <r>    4.8249    1.0000 </r>
       <r>   12.0985    0.0000 </r>
       <r>   15.0311    0.0000 </r>
       <r>   15.0311    0.0000 </r>
       <r>   19.4655    0.0000 </r>
      </set>
     </set>
    </set>
   </array>
  </eigenvalues>
  <separator name="orbital magnetization" >
   <v name="MAGDIPOLOUT">      0.00000000      0.00000000      0.00000000</v>
  </separator>
  <dos>
   <i name="efermi">      5.09369545 </i>
   <total>
    <array>
     <dimension dim="1">gridpoints</dimension>
     <dimension dim="2">spin</dimension>
     <field>energy</field>
     <field>total</field>
     <field>integrated</field>
     <set>
      <set comment="spin 1">
       <r>   -19.6880     0.0000     0.0000 </r>
       <r>   -19.5513     0.0000     0.0000 </r>
       <r>   -19.4145     0.0000     0.0000 </r>
       <r>   -19.2778     0.0000     0.0000 </r>
       <r>   -19.1411     0.0000     0.0000 </r>
       <r>   -19.0044     0.0000     0.0000 </r>
       <r>   -18.8676     0.0000     0.0000 </r>
       <r>   -18.7309     0.0000     0.0000 </r>
       <r>   -18.5942     0.0000     0.0000 </r>
       <r>   -18.4575     0.0000     0.0000 </r>
       <r>   -18.3207     0.0000     0.0000 </r>
       <r>   -18.1840     0.0000     0.0000 </r>
       <r>   -18.0473     0.0000     0.0000 </r>
       <r>   -17.9106     0.1013     0.0139 </r>
       <r>   -17.7738    13.3587     1.8404 </r>
       <r>   -17.6371     1.1676     2.0000 </r>
       <r>   -17.5004     0.0000     2.0000 </r>
       <r>   -17.3636     0.0000     2.0000 </r>
       <r>   -17.2269     0.0000     2.0000 </r>
       <r>   -17.0902     0.0000     2.0000 </r>
       <r>   -16.9535     0.0000     2.0000 </r>
       <r>   -16.8167     0.0000     2.0000 </r>
       <r>   -16.6800     0.0000     2.0000 </r>
       <r>   -16.5433     0.0000     2.0000 </r>
       <r>   -16.4066     0.0000     2.0000 </r>
       <r>   -16.2698     0.0000     2.0000 </r>
       <r>   -16.1331     0.0000     2.0000 </r>
       <r>   -15.9964     0.0000     2.0000 </r>
       <r>   -15.8597     0.0000     2.0000 </r>
       <r>   -15.7229     0.0000     2.0000 </r>
       <r>   -15.5862     0.0000     2.0000 </r>
       <r>   -15.4495     0.0000     2.0000 </r>
       <r>   -15.3127     0.0000     2.0000 </r>
       <r>   -15.1760     0.0000     2.0000 </r>
       <r>   -15.0393     0.0000     2.0000 </r>
       <r>   -14.9026     0.0000     2.0000 </r>
       <r>   -14.7658     0.0000     2.0000 </r>
       <r>   -14.6291     0.0000     2.0000 </r>
       <r>   -14.4924     0.0000     2.0000 </r>
       <r>   -14.3557     0.0000     2.0000 </r>
       <r>   -14.2189     0.0000     2.0000 </r>
       <r>   -14.0822     0.0000     2.0000 </r>
       <r>   -13.9455     0.0000     2.0000 </r>
       <r>   -13.8088     0.0000     2.0000 </r>
       <r>   -13.6720     0.0000     2.0000 </r>
       <r>   -13.5353     0.0000     2.0000 </r>
       <r>   -13.3986     0.0000     2.0000 </r>
       <r>   -13.2618     0.0000     2.0000 </r>
       <r>   -13.1251     0.0000     2.0000 </r>
       <r>   -12.9884     0.0000     2.0000 </r>
       <r>   -12.8517     0.0000     2.0000 </r>
       <r>   -12.7149     0.0000     2.0000 </r>
       <r>   -12.5782     0.0000     2.0000 </r>
       <r>   -12.4415     0.0000     2.0000 </r>
       <r>   -12.3048     0.0000     2.0000 </r>
       <r>   -12.1680     0.0000     2.0000 </r>
       <r>   -12.0313     0.0000     2.0000 </r>
       <r>   -11.8946     0.0000     2.0000 </r>
       <r>   -11.7579     0.0000     2.0000 </r>
       <r>   -11.6211     0.0000     2.0000 </r>
       <r>   -11.4844     0.0000     2.0000 </r>
       <r>   -11.3477     0.0000     2.0000 </r>
       <r>   -11.2109     0.1240     2.0170 </r>
       <r>   -11.0742    13.4871     3.8610 </r>
       <r>   -10.9375     1.0167     4.0000 </r>
       <r>   -10.8008     0.0000     4.0000 </r>
       <r>   -10.6640     0.0000     4.0000 </r>
       <r>   -10.5273     0.0000     4.0000 </r>
       <r>   -10.3906     0.0000     4.0000 </r>
       <r>   -10.2539     0.0000     4.0000 </r>
       <r>   -10.1171     0.0000     4.0000 </r>
       <r>    -9.9804     0.0000     4.0000 </r>
       <r>    -9.8437     0.0000     4.0000 </r>
       <r>    -9.7070     0.0000     4.0000 </r>
       <r>    -9.5702     0.0000     4.0000 </r>
       <r>    -9.4335     0.0000     4.0000 </r>
       <r>    -9.2968     0.0000     4.0000 </r>
       <r>    -9.1601     0.0000     4.0000 </r>
       <r>    -9.0233     0.0000     4.0000 </r>
       <r>    -8.8866     0.0000     4.0000 </r>
       <r>    -8.7499     0.0000     4.0000 </r>
       <r>    -8.6131     0.0000     4.0000 </r>
       <r>    -8.4764     0.0000     4.0000 </r>
       <r>    -8.3397     0.0000     4.0000 </r>
       <r>    -8.2030     0.0000     4.0000 </r>
       <r>    -8.0662     0.0000     4.0000 </r>
       <r>    -7.9295     0.0000     4.0000 </r>
       <r>    -7.7928     0.0000     4.0000 </r>
       <r>    -7.6561     0.0000     4.0000 </r>
       <r>    -7.5193     0.0000     4.0000 </r>
       <r>    -7.3826     0.0000     4.0000 </r>
       <r>    -7.2459     0.0000     4.0000 </r>
       <r>    -7.1092     0.0000     4.0000 </r>
       <r>    -6.9724     0.0000     4.0000 </r>
       <r>    -6.8357     0.0000     4.0000 </r>
       <r>    -6.6990     0.0000     4.0000 </r>
       <r>    -6.5622     0.0000     4.0000 </r>
       <r>    -6.4255     0.0000     4.0000 </r>
       <r>    -6.2888     0.0000     4.0000 </r>
       <r>    -6.1521     0.0000     4.0000 </r>
       <r>    -6.0153     0.0000     4.0000 </r>
       <r>    -5.8786     0.0000     4.0000 </r>
       <r>    -5.7419     0.0000     4.0000 </r>
       <r>    -5.6052     0.0000     4.0000 </r>
       <r>    -5.4684     0.0000     4.0000 </r>
       <r>    -5.3317     0.0000     4.0000 </r>
       <r>    -5.1950     0.0000     4.0000 </r>
       <r>    -5.0583     0.0000     4.0000 </r>
       <r>    -4.9215     0.0000     4.0000 </r>
       <r>    -4.7848     0.0000     4.0000 </r>
       <r>    -4.6481     0.0000     4.0000 </r>
       <r>    -4.5113     0.0000     4.0000 </r>
       <r>    -4.3746     0.0000     4.0000 </r>
       <r>    -4.2379     0.0000     4.0000 </r>
       <r>    -4.1012     0.0000     4.0000 </r>
       <r>    -3.9644     0.0000     4.0000 </r>
       <r>    -3.8277     0.0000     4.0000 </r>
       <r>    -3.6910     0.0000     4.0000 </r>
       <r>    -3.5543     0.0000     4.0000 </r>
       <r>    -3.4175     0.0000     4.0000 </r>
       <r>    -3.2808     0.0000     4.0000 </r>
       <r>    -3.1441     0.0000     4.0000 </r>
       <r>    -3.0074     0.0000     4.0000 </r>
       <r>    -2.8706     0.0000     4.0000 </r>
       <r>    -2.7339     0.0000     4.0000 </r>
       <r>    -2.5972     0.0000     4.0000 </r>
       <r>    -2.4604     0.0004     4.0001 </r>
       <r>    -2.3237    15.1269     6.0683 </r>
       <r>    -2.1870    28.7444     9.9984 </r>
       <r>    -2.0503     0.0115    10.0000 </r>
       <r>    -1.9135     0.0000    10.0000 </r>
       <r>    -1.7768     0.0000    10.0000 </r>
       <r>    -1.6401     0.0000    10.0000 </r>
       <r>    -1.5034     0.0000    10.0000 </r>
       <r>    -1.3666     0.0000    10.0000 </r>
       <r>    -1.2299     0.0000    10.0000 </r>
       <r>    -1.0932     0.0000    10.0000 </r>
       <r>    -0.9565     0.0000    10.0000 </r>
       <r>    -0.8197     0.0000    10.0000 </r>
       <r>    -0.6830     0.0000    10.0000 </r>
       <r>    -0.5463     0.0000    10.0000 </r>
       <r>    -0.4095     0.0000    10.0000 </r>
       <r>    -0.2728     0.0000    10.0000 </r>
       <r>    -0.1361     0.0000    10.0000 </r>
       <r>     0.0006     0.0000    10.0000 </r>
       <r>     0.1374     0.0000    10.0000 </r>
       <r>     0.2741     0.0000    10.0000 </r>
       <r>     0.4108     0.0000    10.0000 </r>
       <r>     0.5475     0.0000    10.0000 </r>
       <r>     0.6843     0.0000    10.0000 </r>
       <r>     0.8210     0.0000    10.0000 </r>
       <r>     0.9577     0.0000    10.0000 </r>
       <r>     1.0944     0.0000    10.0000 </r>
       <r>     1.2312     0.0000    10.0000 </r>
       <r>     1.3679     0.0000    10.0000 </r>
       <r>     1.5046     0.0000    10.0000 </r>
       <r>     1.6413     0.0000    10.0000 </r>
       <r>     1.7781     0.0000    10.0000 </r>
       <r>     1.9148     0.0000    10.0000 </r>
       <r>     2.0515     0.0000    10.0000 </r>
       <r>     2.1883     0.0000    10.0000 </r>
       <r>     2.3250     0.0000    10.0000 </r>
       <r>     2.4617     0.0000    10.0000 </r>
       <r>     2.5984     0.0000    10.0000 </r>
       <r>     2.7352     0.0000    10.0000 </r>
       <r>     2.8719     0.0000    10.0000 </r>
       <r>     3.0086     0.0000    10.0000 </r>
       <r>     3.1453     0.0000    10.0000 </r>
       <r>     3.2821     0.0000    10.0000 </r>
       <r>     3.4188     0.0000    10.0000 </r>
       <r>     3.5555     0.0000    10.0000 </r>
       <r>     3.6922     0.0000    10.0000 </r>
       <r>     3.8290     0.0000    10.0000 </r>
       <r>     3.9657     0.0000    10.0000 </r>
       <r>     4.1024     0.0000    10.0000 </r>
       <r>     4.2392     0.0000    10.0000 </r>
       <r>     4.3759     0.0000    10.0000 </r>
       <r>     4.5126     0.0000    10.0000 </r>
       <r>     4.6493     0.0000    10.0000 </r>
       <r>     4.7861     5.9946    10.8196 </r>
       <r>     4.9228    37.7661    15.9833 </r>
       <r>     5.0595     0.1224    16.0000 </r>
       <r>     5.1962     0.0000    16.0000 </r>
       <r>     5.3330     0.0000    16.0000 </r>
       <r>     5.4697     0.0000    16.0000 </r>
       <r>     5.6064     0.0000    16.0000 </r>
       <r>     5.7431     0.0000    16.0000 </r>
       <r>     5.8799     0.0000    16.0000 </r>
       <r>     6.0166     0.0000    16.0000 </r>
       <r>     6.1533     0.0000    16.0000 </r>
       <r>     6.2901     0.0000    16.0000 </r>
       <r>     6.4268     0.0000    16.0000 </r>
       <r>     6.5635     0.0000    16.0000 </r>
       <r>     6.7002     0.0000    16.0000 </r>
       <r>     6.8370     0.0000    16.0000 </r>
       <r>     6.9737     0.0000    16.0000 </r>
       <r>     7.1104     0.0000    16.0000 </r>
       <r>     7.2471     0.0000    16.0000 </r>
       <r>     7.3839     0.0000    16.0000 </r>
       <r>     7.5206     0.0000    16.0000 </r>
       <r>     7.6573     0.0000    16.0000 </r>
       <r>     7.7940     0.0000    16.0000 </r>
       <r>     7.9308     0.0000    16.0000 </r>
       <r>     8.0675     0.0000    16.0000 </r>
       <r>     8.2042     0.0000    16.0000 </r>
       <r>     8.3410     0.0000    16.0000 </r>
       <r>     8.4777     0.0000    16.0000 </r>
       <r>     8.6144     0.0000    16.0000 </r>
       <r>     8.7511     0.0000    16.0000 </r>
       <r>     8.8879     0.0000    16.0000 </r>
       <r>     9.0246     0.0000    16.0000 </r>
       <r>     9.1613     0.0000    16.0000 </r>
       <r>     9.2980     0.0000    16.0000 </r>
       <r>     9.4348     0.0000    16.0000 </r>
       <r>     9.5715     0.0000    16.0000 </r>
       <r>     9.7082     0.0000    16.0000 </r>
       <r>     9.8449     0.0000    16.0000 </r>
       <r>     9.9817     0.0000    16.0000 </r>
       <r>    10.1184     0.0000    16.0000 </r>
       <r>    10.2551     0.0000    16.0000 </r>
       <r>    10.3919     0.0000    16.0000 </r>
       <r>    10.5286     0.0000    16.0000 </r>
       <r>    10.6653     0.0000    16.0000 </r>
       <r>    10.8020     0.0000    16.0000 </r>
       <r>    10.9388     0.0000    16.0000 </r>
       <r>    11.0755     0.0000    16.0000 </r>
       <r>    11.2122     0.0000    16.0000 </r>
       <r>    11.3489     0.0000    16.0000 </r>
       <r>    11.4857     0.0000    16.0000 </r>
       <r>    11.6224     0.0000    16.0000 </r>
       <r>    11.7591     0.0000    16.0000 </r>
       <r>    11.8958     0.0000    16.0000 </r>
       <r>    12.0326     0.4544    16.0621 </r>
       <r>    12.1693    13.8420    17.9547 </r>
       <r>    12.3060     0.3314    18.0000 </r>
       <r>    12.4427     0.0000    18.0000 </r>
       <r>    12.5795     0.0000    18.0000 </r>
       <r>    12.7162     0.0000    18.0000 </r>
       <r>    12.8529     0.0000    18.0000 </r>
       <r>    12.9897     0.0000    18.0000 </r>
       <r>    13.1264     0.0000    18.0000 </r>
       <r>    13.2631     0.0000    18.0000 </r>
       <r>    13.3998     0.0000    18.0000 </r>
       <r>    13.5366     0.0000    18.0000 </r>
       <r>    13.6733     0.0000    18.0000 </r>
       <r>    13.8100     0.0000    18.0000 </r>
       <r>    13.9467     0.0000    18.0000 </r>
       <r>    14.0835     0.0000    18.0000 </r>
       <r>    14.2202     0.0000    18.0000 </r>
       <r>    14.3569     0.0000    18.0000 </r>
       <r>    14.4936     0.0000    18.0000 </r>
       <r>    14.6304     0.0000    18.0000 </r>
       <r>    14.7671     0.0000    18.0000 </r>
       <r>    14.9038     0.0047    18.0006 </r>
       <r>    15.0406    17.7094    20.4220 </r>
       <r>    15.1773    11.5409    21.9999 </r>
       <r>    15.3140     0.0005    22.0000 </r>
       <r>    15.4507     0.0000    22.0000 </r>
       <r>    15.5875     0.0000    22.0000 </r>
       <r>    15.7242     0.0000    22.0000 </r>
       <r>    15.8609     0.0000    22.0000 </r>
       <r>    15.9976     0.0000    22.0000 </r>
       <r>    16.1344     0.0000    22.0000 </r>
       <r>    16.2711     0.0000    22.0000 </r>
       <r>    16.4078     0.0000    22.0000 </r>
       <r>    16.5445     0.0000    22.0000 </r>
       <r>    16.6813     0.0000    22.0000 </r>
       <r>    16.8180     0.0000    22.0000 </r>
       <r>    16.9547     0.0000    22.0000 </r>
       <r>    17.0915     0.0000    22.0000 </r>
       <r>    17.2282     0.0000    22.0000 </r>
       <r>    17.3649     0.0000    22.0000 </r>
       <r>    17.5016     0.0000    22.0000 </r>
       <r>    17.6384     0.0000    22.0000 </r>
       <r>    17.7751     0.0000    22.0000 </r>
       <r>    17.9118     0.0000    22.0000 </r>
       <r>    18.0485     0.0000    22.0000 </r>
       <r>    18.1853     0.0000    22.0000 </r>
       <r>    18.3220     0.0000    22.0000 </r>
       <r>    18.4587     0.0000    22.0000 </r>
       <r>    18.5954     0.0000    22.0000 </r>
       <r>    18.7322     0.0000    22.0000 </r>
       <r>    18.8689     0.0000    22.0000 </r>
       <r>    19.0056     0.0000    22.0000 </r>
       <r>    19.1424     0.0000    22.0000 </r>
       <r>    19.2791     0.0000    22.0000 </r>
       <r>    19.4158     1.1676    22.1596 </r>
       <r>    19.5525    13.3587    23.9861 </r>
       <r>    19.6893     0.1013    24.0000 </r>
       <r>    19.8260     0.0000    24.0000 </r>
       <r>    19.9627     0.0000    24.0000 </r>
       <r>    20.0994     0.0000    24.0000 </r>
       <r>    20.2362     0.0000    24.0000 </r>
       <r>    20.3729     0.0000    24.0000 </r>
       <r>    20.5096     0.0000    24.0000 </r>
       <r>    20.6463     0.0000    24.0000 </r>
       <r>    20.7831     0.0000    24.0000 </r>
       <r>    20.9198     0.0000    24.0000 </r>
       <r>    21.0565     0.0000    24.0000 </r>
       <r>    21.1933     0.0000    24.0000 </r>
       <r>    21.3300     0.0000    24.0000 </r>
      </set>
     </set>
    </array>
   </total>
  </dos>
 </calculation>
 <structure name="finalpos" >
  <crystal>
   <varray name="basis" >
    <v>       2.80969200       0.00000000       0.00000000 </v>
    <v>       0.00000000       2.80969200       0.00000000 </v>
    <v>       0.00000000       0.00000000       2.80969200 </v>
   </varray>
   <i name="volume">     22.18074580 </i>
   <varray name="rec_basis" >
    <v>       0.35591090       0.00000000       0.00000000 </v>
    <v>       0.00000000       0.35591090       0.00000000 </v>
    <v>       0.00000000       0.00000000       0.35591090 </v>
   </varray>
  </crystal>
  <varray name="positions" >
   <v>       0.75000000       0.75000000       0.25000000 </v>
   <v>       0.25000000       0.25000000       0.25000000 </v>
   <v>       0.25000000       0.75000000       0.75000000 </v>
   <v>       0.75000000       0.25000000       0.75000000 </v>
   <v>       0.00000000       0.00000000       0.00000000 </v>
   <v>       0.50000000       0.50000000       0.50000000 </v>
  </varray>
 </structure>
</modeling>
