unknown system                          
           1
     2.809692    0.000000    0.000000
     0.000000    2.809692    0.000000
     0.000000    0.000000    2.809692
   H    O 
     4     2
Direct configuration=     1
   0.75000000  0.75000000  0.25000000
   0.25000000  0.25000000  0.25000000
   0.25000000  0.75000000  0.75000000
   0.75000000  0.25000000  0.75000000
   0.00000000  0.00000000  0.00000000
   0.50000000  0.50000000  0.50000000
