       N       E                     dE             d eps       ncg     rms          rms(c)
DAV:   1     0.124356756169E+03    0.12436E+03   -0.19140E+04    24   0.305E+03
DAV:   2    -0.175615351912E+02   -0.14192E+03   -0.11671E+03    28   0.402E+02
DAV:   3    -0.213921530698E+02   -0.38306E+01   -0.38212E+01    28   0.639E+01
DAV:   4    -0.214114831477E+02   -0.19330E-01   -0.19330E-01    24   0.478E+00
DAV:   5    -0.214117010499E+02   -0.21790E-03   -0.21790E-03    28   0.445E-01    0.130E+01
RMM:   6    -0.171371051574E+02    0.42746E+01   -0.11294E+01    24   0.296E+01    0.446E+00
RMM:   7    -0.171392366116E+02   -0.21315E-02   -0.19401E+00    24   0.130E+01    0.283E+00
RMM:   8    -0.172215994478E+02   -0.82363E-01   -0.19098E-01    24   0.542E+00    0.102E+00
RMM:   9    -0.172036815284E+02    0.17918E-01   -0.37563E-02    25   0.178E+00    0.162E-01
RMM:  10    -0.172043796295E+02   -0.69810E-03   -0.10865E-02    27   0.980E-01    0.145E-01
RMM:  11    -0.172040146488E+02    0.36498E-03   -0.14964E-03    25   0.391E-01    0.143E-02
RMM:  12    -0.172040226223E+02   -0.79735E-05   -0.56877E-05    27   0.827E-02    0.898E-03
RMM:  13    -0.172040238649E+02   -0.12426E-05   -0.10980E-05    26   0.306E-02    0.233E-03
RMM:  14    -0.172040239675E+02   -0.10262E-06   -0.29587E-06    21   0.143E-02
   1 F= -.17942921E+02 E0= -.17942921E+02  d E =-.254766E-17
