 vasp.6.4.3 19Mar24 (build Jun 21 2025 18:38:16) complex                        
  
 executed on             LinuxIFC date 2025.06.26  13:54:17
 running    1 mpi-ranks, on    1 nodes
 distrk:  each k-point on    1 cores,    1 groups
 distr:  one band on NCORE=   1 cores,    1 groups


--------------------------------------------------------------------------------------------------------


 INCAR:
   PREC = A
   ENCUT = 1500
   ISYM = 0
   ALGO = fast
   EDIFF = 1.000000e-06
   LREAL = .FALSE.
   NPAR = 2
   KPAR = 1
   NELMIN = 4
   ISIF = 2
   ISMEAR = 0
   SIGMA = 0.050000
   IBRION = -1
   NSW = 0
   LWAVE = F
   LCHARG = F
   PSTRESS = 0
   LASPH = T
   GGA = PE
   IVDW = 10

 POTCAR:    PAW_PBE H 15Jun2001                   
 POTCAR:    PAW_PBE O 08Apr2002                   
 -----------------------------------------------------------------------------
|                                                                             |
|           W    W    AA    RRRRR   N    N  II  N    N   GGGG   !!!           |
|           W    W   A  A   R    R  NN   N  II  NN   N  G    G  !!!           |
|           W    W  A    A  R    R  N N  N  II  N N  N  G       !!!           |
|           W WW W  AAAAAA  RRRRR   N  N N  II  N  N N  G  GGG   !            |
|           WW  WW  A    A  R   R   N   NN  II  N   NN  G    G                |
|           W    W  A    A  R    R  N    N  II  N    N   GGGG   !!!           |
|                                                                             |
|     The value NPAR = 2 specified in the INCAR file was overwritten,         |
|     because it was not compatible with the 1 processes available:           |
|     NPAR = 1                                                                |
|     was used instead, please check that this makes sense for your           |
|     machine.                                                                |
|                                                                             |
 -----------------------------------------------------------------------------

 POTCAR:    PAW_PBE H 15Jun2001                   
   SHA256 =  030f79b5d3ab3cf0e668861823c8fb652ff669f3e15e46930bd03bfd63a607b6 H/POTCAR              
   COPYR  = (c) Copyright 15Jun2001 Georg Kresse                                                    
   COPYR  = This file is part of the software VASP. Any use, copying, and all other rights are regul
   COPYR  = If you do not have a valid VASP license, you may not use, copy or distribute this file. 
   VRHFIN =H: ultrasoft test                                                                        
   LEXCH  = PE                                                                                      
   EATOM  =    12.4884 eV,    0.9179 Ry                                                             
                                                                                                    
   TITEL  = PAW_PBE H 15Jun2001                                                                     
   LULTRA =        F    use ultrasoft PP ?                                                          
   IUNSCR =        0    unscreen: 0-lin 1-nonlin 2-no                                               
   RPACOR =    0.000    partial core radius                                                         
   POMASS =    1.000; ZVAL   =    1.000    mass and valenz                                          
   RCORE  =    1.100    outmost cutoff radius                                                       
   RWIGS  =    0.700; RWIGS  =    0.370    wigner-seitz radius (au A)                               
   ENMAX  =  250.000; ENMIN  =  200.000 eV                                                          
   RCLOC  =    0.701    cutoff for local pot                                                        
   LCOR   =        T    correct aug charges                                                         
   LPAW   =        T    paw PP                                                                      
   EAUG   =  400.000                                                                                
   RMAX   =    1.123    core radius for proj-oper                                                   
   RAUG   =    1.200    factor for augmentation sphere                                              
   RDEP   =    1.112    radius for radial grids                                                     
   RDEPT  =    0.926    core radius for aug-charge                                                  
                                                                                                    
   Atomic configuration                                                                             
    2 entries                                                                                       
     n  l   j            E        occ.                                                              
     1  0  0.50        -6.4927   1.0000                                                             
     2  1  0.50        -3.4015   0.0000                                                             
   Description                                                                                      
     l       E           TYP  RCUT    TYP  RCUT                                                     
     0     -6.4927494     23  1.100                                                                 
     0      6.8029130     23  1.100                                                                 
     1     -4.0817478     23  1.100                                                                 
  local pseudopotential read in
  atomic valenz-charges read in
  non local Contribution for L=           0  read in
    real space projection operators read in
  non local Contribution for L=           0  read in
    real space projection operators read in
  non local Contribution for L=           1  read in
    real space projection operators read in
    PAW grid and wavefunctions read in
 
   number of l-projection  operators is LMAX  =           3
   number of lm-projection operators is LMMAX =           5
 
 POTCAR:    PAW_PBE O 08Apr2002                   
   SHA256 =  818f92134a0a090dccd8ba1447fa70422a3b330e708bb4f08108d8ae51209ddf O/POTCAR              
   COPYR  = (c) Copyright 08Apr2002 Georg Kresse                                                    
   COPYR  = This file is part of the software VASP. Any use, copying, and all other rights are regul
   COPYR  = If you do not have a valid VASP license, you may not use, copy or distribute this file. 
   VRHFIN =O: s2p4                                                                                  
   LEXCH  = PE                                                                                      
   EATOM  =   432.3788 eV,   31.7789 Ry                                                             
                                                                                                    
   TITEL  = PAW_PBE O 08Apr2002                                                                     
   LULTRA =        F    use ultrasoft PP ?                                                          
   IUNSCR =        1    unscreen: 0-lin 1-nonlin 2-no                                               
   RPACOR =    1.200    partial core radius                                                         
   POMASS =   16.000; ZVAL   =    6.000    mass and valenz                                          
   RCORE  =    1.520    outmost cutoff radius                                                       
   RWIGS  =    1.550; RWIGS  =    0.820    wigner-seitz radius (au A)                               
   ENMAX  =  400.000; ENMIN  =  300.000 eV                                                          
   ICORE  =        2    local potential                                                             
   LCOR   =        T    correct aug charges                                                         
   LPAW   =        T    paw PP                                                                      
   EAUG   =  605.392                                                                                
   DEXC   =    0.000                                                                                
   RMAX   =    1.553    core radius for proj-oper                                                   
   RAUG   =    1.300    factor for augmentation sphere                                              
   RDEP   =    1.550    radius for radial grids                                                     
   RDEPT  =    1.329    core radius for aug-charge                                                  
                                                                                                    
   Atomic configuration                                                                             
    4 entries                                                                                       
     n  l   j            E        occ.                                                              
     1  0  0.50      -514.6923   2.0000                                                             
     2  0  0.50       -23.9615   2.0000                                                             
     2  1  0.50        -9.0305   4.0000                                                             
     3  2  1.50        -9.5241   0.0000                                                             
   Description                                                                                      
     l       E           TYP  RCUT    TYP  RCUT                                                     
     0    -23.9615318     23  1.200                                                                 
     0     -9.5240782     23  1.200                                                                 
     1     -9.0304911     23  1.520                                                                 
     1      8.1634956     23  1.520                                                                 
     2     -9.5240782      7  1.500                                                                 
  local pseudopotential read in
  partial core-charges read in
  partial kinetic energy density read in
  kinetic energy density of atom read in
  atomic valenz-charges read in
  non local Contribution for L=           0  read in
    real space projection operators read in
  non local Contribution for L=           0  read in
    real space projection operators read in
  non local Contribution for L=           1  read in
    real space projection operators read in
  non local Contribution for L=           1  read in
    real space projection operators read in
    PAW grid and wavefunctions read in
 
   number of l-projection  operators is LMAX  =           4
   number of lm-projection operators is LMMAX =           8
 
  PAW_PBE H 15Jun2001                   :
 energy of atom  1       EATOM=  -12.4884
 kinetic energy error for atom=    0.0000 (will be added to EATOM!!)
  PAW_PBE O 08Apr2002                   :
 energy of atom  2       EATOM= -432.3788
 kinetic energy error for atom=    0.0005 (will be added to EATOM!!)
 
 
 POSCAR: H  O
  positions in cartesian coordinates
  No initial velocities read in



  D2 vdW correction parametrized for the method pbe       
  IVDW =  10
  VDW_C6 =    0.140   0.700 Jnm^6/mol
  VDW_R0 =    1.001   1.342 A
  VDW_RADIUS =    50.000 A
  VDW_S6 =     0.750
  VDW_SR =     1.000
  VDW_D =    20.000
  LVDW_EWALD = F


 exchange-correlation table for PE
   RHO(1)=    0.500       N(1)  =     2000
   RHO(2)=  100.500       N(2)  =     4000
 


--------------------------------------------------------------------------------------------------------


 ion  position               nearest neighbor table
   1  0.783  0.783  0.217-   5 1.06   6 1.38
   2  0.217  0.217  0.217-   5 1.06   6 1.38
   3  0.283  0.717  0.717-   6 1.06   5 1.38
   4  0.717  0.283  0.717-   6 1.06   5 1.38
   5  0.000  0.000  0.000-   1 1.06   2 1.06   3 1.38   4 1.38
   6  0.500  0.500  0.500-   3 1.06   4 1.06   1 1.38   2 1.38
 

IMPORTANT INFORMATION: All symmetrisations will be switched off!
NOSYMM: (Re-)initialisation of all symmetry stuff for point group C_1.


----------------------------------------------------------------------------------------

                                     Primitive cell                                     

  volume of cell :      22.1807

  direct lattice vectors                    reciprocal lattice vectors
     2.809692000  0.000000000  0.000000000     0.355910897  0.000000000  0.000000000
     0.000000000  2.809692000  0.000000000     0.000000000  0.355910897  0.000000000
     0.000000000  0.000000000  2.809692000     0.000000000  0.000000000  0.355910897

  length of vectors
     2.809692000  2.809692000  2.809692000     0.355910897  0.355910897  0.355910897

  position of ions in fractional coordinates (direct lattice)
     0.782877640  0.782877640  0.217122360
     0.217122360  0.217122360  0.217122360
     0.282877640  0.717122360  0.717122360
     0.717122360  0.282877640  0.717122360
     0.000000000  0.000000000  0.000000000
     0.500000000  0.500000000  0.500000000

  ion indices of the primitive-cell ions
   primitive index   ion index
                 1           1
                 2           2
                 3           3
                 4           4
                 5           5
                 6           6

----------------------------------------------------------------------------------------

 
 
 KPOINTS: Gamma-point                             

Automatic generation of k-mesh.
 Grid dimensions read from file:
 generate k-points for:    1    1    1

 Generating k-lattice:

  Cartesian coordinates                     Fractional coordinates (reciprocal lattice)
     0.355910897  0.000000000  0.000000000     1.000000000  0.000000000  0.000000000
     0.000000000  0.355910897  0.000000000     0.000000000  1.000000000  0.000000000
     0.000000000  0.000000000  0.355910897     0.000000000  0.000000000  1.000000000

  Length of vectors
     0.355910897  0.355910897  0.355910897

  Shift w.r.t. Gamma in fractional coordinates (k-lattice)
     0.000000000  0.000000000  0.000000000

 
 Subroutine IBZKPT returns following result:
 ===========================================
 
 Found      1 irreducible k-points:
 
 Following reciprocal coordinates:
            Coordinates               Weight
  0.000000  0.000000  0.000000      1.000000
 
 Following cartesian coordinates:
            Coordinates               Weight
  0.000000  0.000000  0.000000      1.000000
 


--------------------------------------------------------------------------------------------------------




 Dimension of arrays:
   k-points           NKPTS =      1   k-points in BZ     NKDIM =      1   number of bands    NBANDS=     12
   number of dos      NEDOS =    301   number of ions     NIONS =      6
   non local maximal  LDIM  =      4   non local SUM 2l+1 LMDIM =      8
   total plane-waves  NPLWV =  46656
   max r-space proj   IRMAX =      1   max aug-charges    IRDMAX=  27486
   dimension x,y,z NGX =    36 NGY =   36 NGZ =   36
   dimension x,y,z NGXF=    72 NGYF=   72 NGZF=   72
   support grid    NGXF=    72 NGYF=   72 NGZF=   72
   ions per type =               4   2
   NGX,Y,Z   is equivalent  to a cutoff of  21.30, 21.30, 21.30 a.u.
   NGXF,Y,Z  is equivalent  to a cutoff of  42.60, 42.60, 42.60 a.u.

 SYSTEM =  unknown system                          
 POSCAR =  H  O                                    

 Startparameter for this run:
   NWRITE =      2    write-flag & timer
   PREC   = a         normal or accurate (medium, high low for compatibility)
   ISTART =      0    job   : 0-new  1-cont  2-samecut
   ICHARG =      2    charge: 1-file 2-atom 10-const
   ISPIN  =      1    spin polarized calculation?
   LNONCOLLINEAR =      F non collinear calculations
   LSORBIT =      F    spin-orbit coupling
   INIWAV =      1    electr: 0-lowe 1-rand  2-diag
   LASPH  =      T    aspherical Exc in radial PAW
 Electronic Relaxation 1
   ENCUT  = 1500.0 eV 110.25 Ry   10.50 a.u.   8.87  8.87  8.87*2*pi/ulx,y,z
   ENINI  = 1500.0     initial cutoff
   ENAUG  =  605.4 eV  augmentation charge cutoff
   NELM   =     60;   NELMIN=  4; NELMDL= -5     # of ELM steps 
   EDIFF  = 0.1E-05   stopping-criterion for ELM
   LREAL  =      F    real-space projection
   NLSPLINE    = F    spline interpolate recip. space projectors
   LCOMPAT=      F    compatible to vasp.4.4
   GGA_COMPAT  = T    GGA compatible to vasp.4.4-vasp.4.6
   LMAXPAW     = -100 max onsite density
   LMAXMIX     =    2 max onsite mixed and CHGCAR
   VOSKOWN=      0    Vosko Wilk Nusair interpolation
   ROPT   =    0.00000   0.00000
 Ionic relaxation
   EDIFFG = 0.1E-04   stopping-criterion for IOM
   NSW    =      0    number of steps for IOM
   NBLOCK =      1;   KBLOCK =      1    inner block; outer block 
   IBRION =     -1    ionic relax: 0-MD 1-quasi-New 2-CG
   NFREE  =      0    steps in history (QN), initial steepest desc. (CG)
   ISIF   =      2    stress and relaxation
   IWAVPR =     10    prediction:  0-non 1-charg 2-wave 3-comb
   ISYM   =      0    0-nonsym 1-usesym 2-fastsym
   LCORR  =      T    Harris-Foulkes like correction to forces

   POTIM  = 0.5000    time-step for ionic-motion
   TEIN   =    0.0    initial temperature
   TEBEG  =    0.0;   TEEND  =   0.0 temperature during run
   SMASS  =  -3.00    Nose mass-parameter (am)
   estimated Nose-frequenzy (Omega)   =  0.10E-29 period in steps = 0.13E+47 mass=  -0.180E-27a.u.
   SCALEE = 1.0000    scale energy and forces
   NPACO  =    256;   APACO  = 10.0  distance and # of slots for P.C.
   PSTRESS=    0.0 pullay stress

  Mass of Ions in am
   POMASS =   1.00 16.00
  Ionic Valenz
   ZVAL   =   1.00  6.00
  Atomic Wigner-Seitz radii
   RWIGS  =  -1.00 -1.00
  virtual crystal weights 
   VCA    =   1.00  1.00
   NELECT =      16.0000    total number of electrons
   NUPDOWN=      -1.0000    fix difference up-down

 DOS related values:
   EMIN   =  10.00;   EMAX   =-10.00  energy-range for DOS
   EFERMI =   0.00;   METHOD = LEGACY      
   ISMEAR =     0;   SIGMA  =   0.05  broadening in eV -4-tet -1-fermi 0-gaus

 Electronic relaxation 2 (details)
   IALGO  =     68    algorithm
   LDIAG  =      T    sub-space diagonalisation (order eigenvalues)
   LSUBROT=      F    optimize rotation matrix (better conditioning)
   TURBO    =      0    0=normal 1=particle mesh
   IRESTART =      0    0=no restart 2=restart with 2 vectors
   NREBOOT  =      0    no. of reboots
   NMIN     =      0    reboot dimension
   EREF     =   0.00    reference energy to select bands
   IMIX   =      4    mixing-type and parameters
     AMIX     =   0.40;   BMIX     =  1.00
     AMIX_MAG =   1.60;   BMIX_MAG =  1.00
     AMIN     =   0.10
     WC   =   100.;   INIMIX=   1;  MIXPRE=   1;  MAXMIX= -45

 Intra band minimization:
   WEIMIN = 0.0000     energy-eigenvalue tresh-hold
   EBREAK =  0.21E-07  absolut break condition
   DEPER  =   0.30     relativ break condition  

   TIME   =   0.40     timestep for ELM

  volume/ion in A,a.u.               =       3.70        24.95
  Fermi-wavevector in a.u.,A,eV,Ry     =   1.468214  2.774523 29.329442  2.155653
  Thomas-Fermi vector in A             =   2.583739
 
 Write flags
   LWAVE        =      F    write WAVECAR
   LDOWNSAMPLE  =      F    k-point downsampling of WAVECAR
   LCHARG       =      F    write CHGCAR
   LVTOT        =      F    write LOCPOT, total local potential
   LVHAR        =      F    write LOCPOT, Hartree potential only
   WRT_POTENTIAL= false  ! write potential to hdf5 file
   LELF         =      F    write electronic localiz. function (ELF)
   LORBIT       =      0    0 simple, 1 ext, 2 COOP (PROOUT), +10 PAW based schemes


 Dipole corrections
   LMONO      =      F    monopole corrections only (constant potential shift)
   LDIPOL     =      F    correct potential (dipole corrections)
   IDIPOL     =      0    1-x, 2-y, 3-z, 4-all directions 
   EPSILON    =  1.0000000 bulk dielectric constant
   LVACPOTAV  =      F  vacuum potentials using an averaging scheme for the charge density
   VACPOTFLAT =  0.1000000 required flatness to determine vacuum potential
 Exchange correlation treatment:
   GGA     = PE    functional components
   XC_C    = 1    coefficients multiplying the functional components
   LIBXC   =     F    Libxc                    
   VOSKOWN =     0    Vosko Wilk Nusair interpolation
   LHFCALC =     F    Hartree Fock is set to
   LHFONE  =     F    Hartree Fock one center treatment
   AEXX    =    0.0000 exact exchange contribution

 Parameters of functionals:
   PE:
     No parameter
 
 Van der Waals corrections
   IVDW    =    10    specifies the selected vdW correction

 Linear response parameters
   LEPSILON=     F    determine dielectric tensor
   LRPA    =     F    only Hartree local field effects (RPA)
   LNABLA  =     F    use nabla operator in PAW spheres
   LVEL    =     F    velocity operator in full k-point grid
   CSHIFT  =0.1000    complex shift for real part using Kramers Kronig
   OMEGAMAX=  -1.0    maximum frequency
   DEG_THRESHOLD= 0.2000000E-02 threshold for treating states as degnerate
   RTIME   =   -0.100 relaxation time in fs
  (WPLASMAI=    0.000 imaginary part of plasma frequency in eV, 0.658/RTIME)
   DFIELD  = 0.0000000 0.0000000 0.0000000 field for delta impulse in time
 
  Optional k-point grid parameters
   LKPOINTS_OPT  =     F    use optional k-point grid
   KPOINTS_OPT_MODE=     1    mode for optional k-point grid
 
 Orbital magnetization related:
   ORBITALMAG=     F  switch on orbital magnetization
   LCHIMAG   =     F  perturbation theory with respect to B field
   DQ        =  0.001000  dq finite difference perturbation B field
   LLRAUG    =     F  two centre corrections for induced B field
   LBONE     =     F  B-component reconstruction in AE one-centre
   LVGVCALC  =     T  calculate vGv susceptibility
   LVGVAPPL  =     F  apply vGv susceptibility instead of pGv for G=0

 Random number generation:
   RANDOM_GENERATOR = DEFAULT
   PCG_SEED         = not used


--------------------------------------------------------------------------------------------------------


 Static calculation
 charge density and potential will be updated during run
 non-spin polarized calculation
 RMM-DIIS sequential band-by-band and
  variant of blocked Davidson during initial phase
 perform sub-space diagonalisation
    before iterative eigenvector-optimisation
 modified Broyden-mixing scheme, WC =      100.0
 initial mixing is a Kerker type mixing with AMIX =  0.4000 and BMIX =      1.0000
 Hartree-type preconditioning will be used
 using additional bands            4
 reciprocal scheme for non local part
 use partial core corrections
 calculate Harris-corrections to forces 
   (improved forces if not selfconsistent)
 use gradient corrections 
 use of overlap-Matrix (Vanderbilt PP)
 Gauss-broadening in eV      SIGMA  =   0.05


--------------------------------------------------------------------------------------------------------


  energy-cutoff  :     1500.00
  volume of cell :       22.18
      direct lattice vectors                 reciprocal lattice vectors
     2.809692000  0.000000000  0.000000000     0.355910897  0.000000000  0.000000000
     0.000000000  2.809692000  0.000000000     0.000000000  0.355910897  0.000000000
     0.000000000  0.000000000  2.809692000     0.000000000  0.000000000  0.355910897

  length of vectors
     2.809692000  2.809692000  2.809692000     0.355910897  0.355910897  0.355910897


 
 k-points in units of 2pi/SCALE and weight: Gamma-point                             
   0.00000000  0.00000000  0.00000000       1.000
 
 k-points in reciprocal lattice and weights: Gamma-point                             
   0.00000000  0.00000000  0.00000000       1.000
 
 position of ions in fractional coordinates (direct lattice) 
   0.78287764  0.78287764  0.21712236
   0.21712236  0.21712236  0.21712236
   0.28287764  0.71712236  0.71712236
   0.71712236  0.28287764  0.71712236
   0.00000000  0.00000000  0.00000000
   0.50000000  0.50000000  0.50000000
 
 position of ions in cartesian coordinates  (Angst):
   2.19964504  2.19964504  0.61004696
   0.61004696  0.61004696  0.61004696
   0.79479904  2.01489296  2.01489296
   2.01489296  0.79479904  2.01489296
   0.00000000  0.00000000  0.00000000
   1.40484600  1.40484600  1.40484600
 


--------------------------------------------------------------------------------------------------------


 k-point     1 :   0.0000 0.0000 0.0000  plane waves:    2945

 maximum and minimum number of plane-waves per node :      2945     2945

 maximum number of plane-waves:      2945
 maximum index in each direction: 
   IXMAX=    8   IYMAX=    8   IZMAX=    8
   IXMIN=   -8   IYMIN=   -8   IZMIN=   -8


 serial   3D FFT for wavefunctions
 parallel 3D FFT for charge:
    minimum data exchange during FFTs selected (reduces bandwidth)


 total amount of memory used by VASP MPI-rank0    67512. kBytes
=======================================================================

   base      :      30000. kBytes
   nonl-proj :        659. kBytes
   fftplans  :      13060. kBytes
   grid      :      23203. kBytes
   one-center:         18. kBytes
   wavefun   :        572. kBytes
 
     INWAV:  cpu time      0.0000: real time      0.0000
 Broyden mixing: mesh for mixing (old mesh)
   NGX = 17   NGY = 17   NGZ = 17
  (NGX  = 72   NGY  = 72   NGZ  = 72)
  gives a total of   4913 points

 initial charge density was supplied:
 charge density of overlapping atoms calculated
 number of electron      16.0000000 magnetization 
 keeping initial charge density in first step


--------------------------------------------------------------------------------------------------------


 Maximum index for augmentation-charges        26529 (set IRDMAX)


--------------------------------------------------------------------------------------------------------


 First call to EWALD:  gamma=   0.631
 Maximum number of real-space cells 3x 3x 3
 Maximum number of reciprocal cells 3x 3x 3

    FEWALD:  cpu time      0.0004: real time      0.0004


--------------------------------------- Ionic step        1  -------------------------------------------




--------------------------------------- Iteration      1(   1)  ---------------------------------------


    POTLOK:  cpu time      0.0990: real time      0.0990
    SETDIJ:  cpu time      0.1949: real time      0.1949
     EDDAV:  cpu time      0.0290: real time      0.0290
       DOS:  cpu time      0.0001: real time      0.0001
    --------------------------------------------
      LOOP:  cpu time      0.3229: real time      0.3229

 eigenvalue-minimisations  :    24
 total energy-change (2. order) : 0.1243568E+03  (-0.1913988E+04)
 number of electron      16.0000000 magnetization 
 augmentation part       16.0000000 magnetization 

 Free energy of the ion-electron system (eV)
  ---------------------------------------------------
  alpha Z        PSCENC =        40.44071196
  Ewald energy   TEWEN  =      -757.24489080
  -Hartree energ DENC   =      -179.92324992
  -exchange      EXHF   =         0.00000000
  -V(xc)+E(xc)   XCENC  =        68.40766217
  PAW double counting   =       701.63506352     -705.26791599
  entropy T*S    EENTRO =        -0.00000000
  eigenvalues    EBANDS =        41.59928848
  atomic energy  EATOM  =       914.71008676
  Solvation  Ediel_sol  =         0.00000000
  ---------------------------------------------------
  free energy    TOTEN  =       124.35675617 eV

  energy without entropy =      124.35675617  energy(sigma->0) =      124.35675617


--------------------------------------------------------------------------------------------------------




--------------------------------------- Iteration      1(   2)  ---------------------------------------


     EDDAV:  cpu time      0.0270: real time      0.0272
       DOS:  cpu time      0.0000: real time      0.0000
    --------------------------------------------
      LOOP:  cpu time      0.0271: real time      0.0272

 eigenvalue-minimisations  :    28
 total energy-change (2. order) :-0.1419183E+03  (-0.1167074E+03)
 number of electron      16.0000000 magnetization 
 augmentation part       16.0000000 magnetization 

 Free energy of the ion-electron system (eV)
  ---------------------------------------------------
  alpha Z        PSCENC =        40.44071196
  Ewald energy   TEWEN  =      -757.24489080
  -Hartree energ DENC   =      -179.92324992
  -exchange      EXHF   =         0.00000000
  -V(xc)+E(xc)   XCENC  =        68.40766217
  PAW double counting   =       701.63506352     -705.26791599
  entropy T*S    EENTRO =        -0.00000000
  eigenvalues    EBANDS =      -100.31900288
  atomic energy  EATOM  =       914.71008676
  Solvation  Ediel_sol  =         0.00000000
  ---------------------------------------------------
  free energy    TOTEN  =       -17.56153519 eV

  energy without entropy =      -17.56153519  energy(sigma->0) =      -17.56153519


--------------------------------------------------------------------------------------------------------




--------------------------------------- Iteration      1(   3)  ---------------------------------------


     EDDAV:  cpu time      0.0250: real time      0.0250
       DOS:  cpu time      0.0000: real time      0.0000
    --------------------------------------------
      LOOP:  cpu time      0.0251: real time      0.0251

 eigenvalue-minimisations  :    28
 total energy-change (2. order) :-0.3830618E+01  (-0.3821173E+01)
 number of electron      16.0000000 magnetization 
 augmentation part       16.0000000 magnetization 

 Free energy of the ion-electron system (eV)
  ---------------------------------------------------
  alpha Z        PSCENC =        40.44071196
  Ewald energy   TEWEN  =      -757.24489080
  -Hartree energ DENC   =      -179.92324992
  -exchange      EXHF   =         0.00000000
  -V(xc)+E(xc)   XCENC  =        68.40766217
  PAW double counting   =       701.63506352     -705.26791599
  entropy T*S    EENTRO =        -0.00000000
  eigenvalues    EBANDS =      -104.14962076
  atomic energy  EATOM  =       914.71008676
  Solvation  Ediel_sol  =         0.00000000
  ---------------------------------------------------
  free energy    TOTEN  =       -21.39215307 eV

  energy without entropy =      -21.39215307  energy(sigma->0) =      -21.39215307


--------------------------------------------------------------------------------------------------------




--------------------------------------- Iteration      1(   4)  ---------------------------------------


     EDDAV:  cpu time      0.0224: real time      0.0224
       DOS:  cpu time      0.0000: real time      0.0000
    --------------------------------------------
      LOOP:  cpu time      0.0224: real time      0.0224

 eigenvalue-minimisations  :    24
 total energy-change (2. order) :-0.1933008E-01  (-0.1932976E-01)
 number of electron      16.0000000 magnetization 
 augmentation part       16.0000000 magnetization 

 Free energy of the ion-electron system (eV)
  ---------------------------------------------------
  alpha Z        PSCENC =        40.44071196
  Ewald energy   TEWEN  =      -757.24489080
  -Hartree energ DENC   =      -179.92324992
  -exchange      EXHF   =         0.00000000
  -V(xc)+E(xc)   XCENC  =        68.40766217
  PAW double counting   =       701.63506352     -705.26791599
  entropy T*S    EENTRO =        -0.00000000
  eigenvalues    EBANDS =      -104.16895084
  atomic energy  EATOM  =       914.71008676
  Solvation  Ediel_sol  =         0.00000000
  ---------------------------------------------------
  free energy    TOTEN  =       -21.41148315 eV

  energy without entropy =      -21.41148315  energy(sigma->0) =      -21.41148315


--------------------------------------------------------------------------------------------------------




--------------------------------------- Iteration      1(   5)  ---------------------------------------


     EDDAV:  cpu time      0.0249: real time      0.0249
       DOS:  cpu time      0.0000: real time      0.0000
    CHARGE:  cpu time      0.0105: real time      0.0105
    MIXING:  cpu time      0.0046: real time      0.0046
    --------------------------------------------
      LOOP:  cpu time      0.0400: real time      0.0400

 eigenvalue-minimisations  :    28
 total energy-change (2. order) :-0.2179022E-03  (-0.2179005E-03)
 number of electron      16.0000001 magnetization 
 augmentation part        1.8875636 magnetization 

 Broyden mixing:
  rms(total) = 0.12975E+01    rms(broyden)= 0.12975E+01
  rms(prec ) = 0.38319E+01
  weight for this iteration     100.00

 Free energy of the ion-electron system (eV)
  ---------------------------------------------------
  alpha Z        PSCENC =        40.44071196
  Ewald energy   TEWEN  =      -757.24489080
  -Hartree energ DENC   =      -179.92324992
  -exchange      EXHF   =         0.00000000
  -V(xc)+E(xc)   XCENC  =        68.40766217
  PAW double counting   =       701.63506352     -705.26791599
  entropy T*S    EENTRO =        -0.00000000
  eigenvalues    EBANDS =      -104.16916874
  atomic energy  EATOM  =       914.71008676
  Solvation  Ediel_sol  =         0.00000000
  ---------------------------------------------------
  free energy    TOTEN  =       -21.41170105 eV

  energy without entropy =      -21.41170105  energy(sigma->0) =      -21.41170105


--------------------------------------------------------------------------------------------------------




--------------------------------------- Iteration      1(   6)  ---------------------------------------


    POTLOK:  cpu time      0.0982: real time      0.0982
    SETDIJ:  cpu time      0.1940: real time      0.1940
    EDDIAG:  cpu time      0.0053: real time      0.0053
  RMM-DIIS:  cpu time      0.0244: real time      0.0244
    ORTHCH:  cpu time      0.0002: real time      0.0002
       DOS:  cpu time      0.0000: real time      0.0000
    CHARGE:  cpu time      0.0085: real time      0.0085
    MIXING:  cpu time      0.0049: real time      0.0049
    --------------------------------------------
      LOOP:  cpu time      0.3356: real time      0.3356

 eigenvalue-minimisations  :    24
 total energy-change (2. order) : 0.4274596E+01  (-0.1129383E+01)
 number of electron      16.0000001 magnetization 
 augmentation part        1.7137301 magnetization 

 Broyden mixing:
  rms(total) = 0.44597E+00    rms(broyden)= 0.44597E+00
  rms(prec ) = 0.12119E+01
  weight for this iteration     100.00

 eigenvalues of (default mixing * dielectric matrix)
  average eigenvalue GAMMA=   1.2059
  1.2059

 Free energy of the ion-electron system (eV)
  ---------------------------------------------------
  alpha Z        PSCENC =        40.44071196
  Ewald energy   TEWEN  =      -757.24489080
  -Hartree energ DENC   =      -215.75788646
  -exchange      EXHF   =         0.00000000
  -V(xc)+E(xc)   XCENC  =        70.95134580
  PAW double counting   =       907.69660509     -912.53904652
  entropy T*S    EENTRO =        -0.00000000
  eigenvalues    EBANDS =       -65.39403099
  atomic energy  EATOM  =       914.71008676
  Solvation  Ediel_sol  =         0.00000000
  ---------------------------------------------------
  free energy    TOTEN  =       -17.13710516 eV

  energy without entropy =      -17.13710516  energy(sigma->0) =      -17.13710516


--------------------------------------------------------------------------------------------------------




--------------------------------------- Iteration      1(   7)  ---------------------------------------


    POTLOK:  cpu time      0.0941: real time      0.0941
    SETDIJ:  cpu time      0.1945: real time      0.1945
    EDDIAG:  cpu time      0.0051: real time      0.0051
  RMM-DIIS:  cpu time      0.0223: real time      0.0223
    ORTHCH:  cpu time      0.0002: real time      0.0002
       DOS:  cpu time      0.0000: real time      0.0000
    CHARGE:  cpu time      0.0081: real time      0.0081
    MIXING:  cpu time      0.0041: real time      0.0041
    --------------------------------------------
      LOOP:  cpu time      0.3284: real time      0.3284

 eigenvalue-minimisations  :    24
 total energy-change (2. order) :-0.2131454E-02  (-0.1940072E+00)
 number of electron      16.0000001 magnetization 
 augmentation part        1.6519634 magnetization 

 Broyden mixing:
  rms(total) = 0.28265E+00    rms(broyden)= 0.28265E+00
  rms(prec ) = 0.59362E+00
  weight for this iteration     100.00

 eigenvalues of (default mixing * dielectric matrix)
  average eigenvalue GAMMA=   2.0500
  1.3814  2.7187

 Free energy of the ion-electron system (eV)
  ---------------------------------------------------
  alpha Z        PSCENC =        40.44071196
  Ewald energy   TEWEN  =      -757.24489080
  -Hartree energ DENC   =      -229.12741505
  -exchange      EXHF   =         0.00000000
  -V(xc)+E(xc)   XCENC  =        71.96119906
  PAW double counting   =      1072.69260334    -1078.03340317
  entropy T*S    EENTRO =        -0.00000000
  eigenvalues    EBANDS =       -52.53812869
  atomic energy  EATOM  =       914.71008676
  Solvation  Ediel_sol  =         0.00000000
  ---------------------------------------------------
  free energy    TOTEN  =       -17.13923661 eV

  energy without entropy =      -17.13923661  energy(sigma->0) =      -17.13923661


--------------------------------------------------------------------------------------------------------




--------------------------------------- Iteration      1(   8)  ---------------------------------------


    POTLOK:  cpu time      0.0929: real time      0.0929
    SETDIJ:  cpu time      0.1941: real time      0.1941
    EDDIAG:  cpu time      0.0050: real time      0.0050
  RMM-DIIS:  cpu time      0.0219: real time      0.0219
    ORTHCH:  cpu time      0.0002: real time      0.0002
       DOS:  cpu time      0.0000: real time      0.0000
    CHARGE:  cpu time      0.0080: real time      0.0080
    MIXING:  cpu time      0.0040: real time      0.0040
    --------------------------------------------
      LOOP:  cpu time      0.3263: real time      0.3263

 eigenvalue-minimisations  :    24
 total energy-change (2. order) :-0.8236284E-01  (-0.1909834E-01)
 number of electron      16.0000001 magnetization 
 augmentation part        1.6681459 magnetization 

 Broyden mixing:
  rms(total) = 0.10246E+00    rms(broyden)= 0.10246E+00
  rms(prec ) = 0.23339E+00
  weight for this iteration     100.00

 eigenvalues of (default mixing * dielectric matrix)
  average eigenvalue GAMMA=   1.6064
  2.5631  1.1280  1.1280

 Free energy of the ion-electron system (eV)
  ---------------------------------------------------
  alpha Z        PSCENC =        40.44071196
  Ewald energy   TEWEN  =      -757.24489080
  -Hartree energ DENC   =      -230.50088214
  -exchange      EXHF   =         0.00000000
  -V(xc)+E(xc)   XCENC  =        72.33832354
  PAW double counting   =      1268.11254800    -1273.52377910
  entropy T*S    EENTRO =        -0.00000000
  eigenvalues    EBANDS =       -51.55371765
  atomic energy  EATOM  =       914.71008676
  Solvation  Ediel_sol  =         0.00000000
  ---------------------------------------------------
  free energy    TOTEN  =       -17.22159945 eV

  energy without entropy =      -17.22159945  energy(sigma->0) =      -17.22159945


--------------------------------------------------------------------------------------------------------




--------------------------------------- Iteration      1(   9)  ---------------------------------------


    POTLOK:  cpu time      0.0927: real time      0.0927
    SETDIJ:  cpu time      0.1946: real time      0.1946
    EDDIAG:  cpu time      0.0053: real time      0.0053
  RMM-DIIS:  cpu time      0.0240: real time      0.0240
    ORTHCH:  cpu time      0.0003: real time      0.0003
       DOS:  cpu time      0.0000: real time      0.0000
    CHARGE:  cpu time      0.0085: real time      0.0085
    MIXING:  cpu time      0.0042: real time      0.0042
    --------------------------------------------
      LOOP:  cpu time      0.3297: real time      0.3297

 eigenvalue-minimisations  :    25
 total energy-change (2. order) : 0.1791792E-01  (-0.3756292E-02)
 number of electron      16.0000001 magnetization 
 augmentation part        1.6608264 magnetization 

 Broyden mixing:
  rms(total) = 0.16175E-01    rms(broyden)= 0.16175E-01
  rms(prec ) = 0.35714E-01
  weight for this iteration     100.00

 eigenvalues of (default mixing * dielectric matrix)
  average eigenvalue GAMMA=   1.6686
  2.4364  1.8861  1.0917  1.2603

 Free energy of the ion-electron system (eV)
  ---------------------------------------------------
  alpha Z        PSCENC =        40.44071196
  Ewald energy   TEWEN  =      -757.24489080
  -Hartree energ DENC   =      -232.21206533
  -exchange      EXHF   =         0.00000000
  -V(xc)+E(xc)   XCENC  =        72.40775522
  PAW double counting   =      1243.36619976    -1248.82919850
  entropy T*S    EENTRO =        -0.00000000
  eigenvalues    EBANDS =       -49.84228059
  atomic energy  EATOM  =       914.71008676
  Solvation  Ediel_sol  =         0.00000000
  ---------------------------------------------------
  free energy    TOTEN  =       -17.20368153 eV

  energy without entropy =      -17.20368153  energy(sigma->0) =      -17.20368153


--------------------------------------------------------------------------------------------------------




--------------------------------------- Iteration      1(  10)  ---------------------------------------


    POTLOK:  cpu time      0.0942: real time      0.0942
    SETDIJ:  cpu time      0.1941: real time      0.1941
    EDDIAG:  cpu time      0.0051: real time      0.0051
  RMM-DIIS:  cpu time      0.0247: real time      0.0247
    ORTHCH:  cpu time      0.0002: real time      0.0002
       DOS:  cpu time      0.0000: real time      0.0000
    CHARGE:  cpu time      0.0083: real time      0.0083
    MIXING:  cpu time      0.0042: real time      0.0042
    --------------------------------------------
      LOOP:  cpu time      0.3309: real time      0.3309

 eigenvalue-minimisations  :    27
 total energy-change (2. order) :-0.6981010E-03  (-0.1086543E-02)
 number of electron      16.0000001 magnetization 
 augmentation part        1.6561921 magnetization 

 Broyden mixing:
  rms(total) = 0.14464E-01    rms(broyden)= 0.14464E-01
  rms(prec ) = 0.35403E-01
  weight for this iteration     100.00

 eigenvalues of (default mixing * dielectric matrix)
  average eigenvalue GAMMA=   1.6525
  2.6168  2.4260  1.1395  1.1395  0.9406

 Free energy of the ion-electron system (eV)
  ---------------------------------------------------
  alpha Z        PSCENC =        40.44071196
  Ewald energy   TEWEN  =      -757.24489080
  -Hartree energ DENC   =      -232.73189752
  -exchange      EXHF   =         0.00000000
  -V(xc)+E(xc)   XCENC  =        72.44001967
  PAW double counting   =      1236.29089606    -1241.77354340
  entropy T*S    EENTRO =        -0.00000000
  eigenvalues    EBANDS =       -49.33576236
  atomic energy  EATOM  =       914.71008676
  Solvation  Ediel_sol  =         0.00000000
  ---------------------------------------------------
  free energy    TOTEN  =       -17.20437963 eV

  energy without entropy =      -17.20437963  energy(sigma->0) =      -17.20437963


--------------------------------------------------------------------------------------------------------




--------------------------------------- Iteration      1(  11)  ---------------------------------------


    POTLOK:  cpu time      0.0928: real time      0.0928
    SETDIJ:  cpu time      0.1945: real time      0.1945
    EDDIAG:  cpu time      0.0050: real time      0.0050
  RMM-DIIS:  cpu time      0.0227: real time      0.0227
    ORTHCH:  cpu time      0.0003: real time      0.0003
       DOS:  cpu time      0.0000: real time      0.0000
    CHARGE:  cpu time      0.0080: real time      0.0080
    MIXING:  cpu time      0.0043: real time      0.0043
    --------------------------------------------
      LOOP:  cpu time      0.3275: real time      0.3275

 eigenvalue-minimisations  :    25
 total energy-change (2. order) : 0.3649807E-03  (-0.1496367E-03)
 number of electron      16.0000001 magnetization 
 augmentation part        1.6576979 magnetization 

 Broyden mixing:
  rms(total) = 0.14338E-02    rms(broyden)= 0.14338E-02
  rms(prec ) = 0.34106E-02
  weight for this iteration     100.00

 eigenvalues of (default mixing * dielectric matrix)
  average eigenvalue GAMMA=   1.6094
  2.5541  2.5541  1.3261  0.9185  1.1517  1.1517

 Free energy of the ion-electron system (eV)
  ---------------------------------------------------
  alpha Z        PSCENC =        40.44071196
  Ewald energy   TEWEN  =      -757.24489080
  -Hartree energ DENC   =      -232.35508013
  -exchange      EXHF   =         0.00000000
  -V(xc)+E(xc)   XCENC  =        72.42004568
  PAW double counting   =      1235.82943779    -1241.29923241
  entropy T*S    EENTRO =        -0.00000000
  eigenvalues    EBANDS =       -49.70509348
  atomic energy  EATOM  =       914.71008676
  Solvation  Ediel_sol  =         0.00000000
  ---------------------------------------------------
  free energy    TOTEN  =       -17.20401465 eV

  energy without entropy =      -17.20401465  energy(sigma->0) =      -17.20401465


--------------------------------------------------------------------------------------------------------




--------------------------------------- Iteration      1(  12)  ---------------------------------------


    POTLOK:  cpu time      0.0926: real time      0.0926
    SETDIJ:  cpu time      0.1952: real time      0.1952
    EDDIAG:  cpu time      0.0055: real time      0.0055
  RMM-DIIS:  cpu time      0.0259: real time      0.0259
    ORTHCH:  cpu time      0.0002: real time      0.0002
       DOS:  cpu time      0.0000: real time      0.0000
    CHARGE:  cpu time      0.0110: real time      0.0110
    MIXING:  cpu time      0.0045: real time      0.0045
    --------------------------------------------
      LOOP:  cpu time      0.3349: real time      0.3349

 eigenvalue-minimisations  :    27
 total energy-change (2. order) :-0.7973480E-05  (-0.5687735E-05)
 number of electron      16.0000001 magnetization 
 augmentation part        1.6578926 magnetization 

 Broyden mixing:
  rms(total) = 0.89786E-03    rms(broyden)= 0.89786E-03
  rms(prec ) = 0.20470E-02
  weight for this iteration     100.00

 eigenvalues of (default mixing * dielectric matrix)
  average eigenvalue GAMMA=   1.6422
  2.8618  2.5990  1.7111  1.1965  1.1965  0.9654  0.9654

 Free energy of the ion-electron system (eV)
  ---------------------------------------------------
  alpha Z        PSCENC =        40.44071196
  Ewald energy   TEWEN  =      -757.24489080
  -Hartree energ DENC   =      -232.35611338
  -exchange      EXHF   =         0.00000000
  -V(xc)+E(xc)   XCENC  =        72.41990862
  PAW double counting   =      1235.22783302    -1240.69757597
  entropy T*S    EENTRO =        -0.00000000
  eigenvalues    EBANDS =       -49.70398283
  atomic energy  EATOM  =       914.71008676
  Solvation  Ediel_sol  =         0.00000000
  ---------------------------------------------------
  free energy    TOTEN  =       -17.20402262 eV

  energy without entropy =      -17.20402262  energy(sigma->0) =      -17.20402262


--------------------------------------------------------------------------------------------------------




--------------------------------------- Iteration      1(  13)  ---------------------------------------


    POTLOK:  cpu time      0.0968: real time      0.0968
    SETDIJ:  cpu time      0.1940: real time      0.1940
    EDDIAG:  cpu time      0.0050: real time      0.0050
  RMM-DIIS:  cpu time      0.0240: real time      0.0240
    ORTHCH:  cpu time      0.0002: real time      0.0002
       DOS:  cpu time      0.0000: real time      0.0000
    CHARGE:  cpu time      0.0082: real time      0.0082
    MIXING:  cpu time      0.0043: real time      0.0042
    --------------------------------------------
      LOOP:  cpu time      0.3325: real time      0.3325

 eigenvalue-minimisations  :    26
 total energy-change (2. order) :-0.1242632E-05  (-0.1097961E-05)
 number of electron      16.0000001 magnetization 
 augmentation part        1.6579607 magnetization 

 Broyden mixing:
  rms(total) = 0.23338E-03    rms(broyden)= 0.23338E-03
  rms(prec ) = 0.53814E-03
  weight for this iteration     100.00

 eigenvalues of (default mixing * dielectric matrix)
  average eigenvalue GAMMA=   1.5931
  2.8097  2.4919  1.7492  1.4729  1.1820  1.1820  0.9843  0.8730

 Free energy of the ion-electron system (eV)
  ---------------------------------------------------
  alpha Z        PSCENC =        40.44071196
  Ewald energy   TEWEN  =      -757.24489080
  -Hartree energ DENC   =      -232.36810316
  -exchange      EXHF   =         0.00000000
  -V(xc)+E(xc)   XCENC  =        72.42170439
  PAW double counting   =      1235.34173777    -1240.81207947
  entropy T*S    EENTRO =        -0.00000000
  eigenvalues    EBANDS =       -49.69319130
  atomic energy  EATOM  =       914.71008676
  Solvation  Ediel_sol  =         0.00000000
  ---------------------------------------------------
  free energy    TOTEN  =       -17.20402386 eV

  energy without entropy =      -17.20402386  energy(sigma->0) =      -17.20402386


--------------------------------------------------------------------------------------------------------




--------------------------------------- Iteration      1(  14)  ---------------------------------------


    POTLOK:  cpu time      0.0927: real time      0.0927
    SETDIJ:  cpu time      0.1940: real time      0.1940
    EDDIAG:  cpu time      0.0053: real time      0.0053
  RMM-DIIS:  cpu time      0.0212: real time      0.0212
    ORTHCH:  cpu time      0.0002: real time      0.0002
       DOS:  cpu time      0.0000: real time      0.0000
    --------------------------------------------
      LOOP:  cpu time      0.3134: real time      0.3134

 eigenvalue-minimisations  :    21
 total energy-change (2. order) :-0.1026249E-06  (-0.2958673E-06)
 number of electron      16.0000001 magnetization 
 augmentation part        1.6579607 magnetization 

 Free energy of the ion-electron system (eV)
  ---------------------------------------------------
  alpha Z        PSCENC =        40.44071196
  Ewald energy   TEWEN  =      -757.24489080
  -Hartree energ DENC   =      -232.36050572
  -exchange      EXHF   =         0.00000000
  -V(xc)+E(xc)   XCENC  =        72.42125943
  PAW double counting   =      1235.43646533    -1240.90662041
  entropy T*S    EENTRO =        -0.00000000
  eigenvalues    EBANDS =       -49.70053051
  atomic energy  EATOM  =       914.71008676
  Solvation  Ediel_sol  =         0.00000000
  ---------------------------------------------------
  free energy    TOTEN  =       -17.20402397 eV

  energy without entropy =      -17.20402397  energy(sigma->0) =      -17.20402397


--------------------------------------------------------------------------------------------------------




 average (electrostatic) potential at core
  the test charge radii are     0.5201  0.7215
  (the norm of the test charge is              1.0000)
       1 -33.7982       2 -33.7985       3 -33.7984       4 -33.7985       5 -68.7010
       6 -68.7010
 
 
 
 E-fermi :   4.7843     XC(G=0): -11.3942     alpha+bet :-11.7316

 val. band max:        4.4775235998   @ k =   0.0000   0.0000   0.0000
 cond. band min:      12.2297554610   @ k =   0.0000   0.0000   0.0000
 fundamental gap:      7.7522318611
 Fermi energy:         4.7842642619

 k-point     1 :       0.0000    0.0000    0.0000
  band No.  band energies     occupation 
      1     -18.2723      2.00000
      2     -11.9891      2.00000
      3      -2.8633      2.00000
      4      -2.8633      2.00000
      5      -2.1494      2.00000
      6       4.3321      2.00000
      7       4.4775      2.00000
      8       4.4775      2.00000
      9      12.2298      0.00000
     10      14.6131      0.00000
     11      14.6272      0.00000
     12      20.1900      0.00000


--------------------------------------------------------------------------------------------------------


 soft charge-density along one line, spin component           1
         0         1         2         3         4         5         6         7         8         9
 total charge-density along one line
 
 pseudopotential strength for first ion, spin component:           1
 -2.238  -3.838  -0.004   0.004  -0.004
 -3.838  -6.495  -0.009   0.009  -0.009
 -0.004  -0.009  -0.359  -0.003   0.003
  0.004   0.009  -0.003  -0.359  -0.003
 -0.004  -0.009   0.003  -0.003  -0.359
 total augmentation occupancy for first ion, spin component:           1
  3.619  -0.816   0.225  -0.224   0.225
 -0.816   0.225  -0.036   0.038  -0.036
  0.225  -0.036   0.079  -0.060   0.060
 -0.224   0.038  -0.060   0.076  -0.060
  0.225  -0.036   0.060  -0.060   0.079


------------------------ aborting loop because EDIFF is reached ----------------------------------------


    CHARGE:  cpu time      0.0085: real time      0.0085
    FORLOC:  cpu time      0.0103: real time      0.0103
    FORNL :  cpu time      0.0213: real time      0.0213
    STRESS:  cpu time      0.0727: real time      0.0727
    FORCOR:  cpu time      0.0919: real time      0.0919
    FORHAR:  cpu time      0.0257: real time      0.0257
    MIXING:  cpu time      0.0044: real time      0.0044
    OFIELD:  cpu time      0.0000: real time      0.0000

  DFT-D2 method for vdW energy calculation
  -------------------------------------------------------------------
  Number of pair interactions contributing to vdW energy:  495532
  Edisp (eV):   -0.73890
    FORVDW:  cpu time      0.0226: real time      0.0226

  FORCE on cell =-STRESS in cart. coord.  units (eV):
  Direction    XX          YY          ZZ          XY          YZ          ZX
  --------------------------------------------------------------------------------------
  Alpha Z    40.44071    40.44071    40.44071
  Ewald    -252.16859  -252.16859  -252.90806     0.00000     0.00000     0.00000
  Hartree    77.50059    77.50055    77.36874    -0.00001     0.00002     0.00002
  E(xc)     -76.08077   -76.08077   -76.08646     0.00001    -0.00000    -0.00000
  Local     -46.43914   -46.43904   -45.65995     0.00007    -0.00005    -0.00007
  n-local   -66.05085   -66.05089   -66.25272     0.00000     0.00000     0.00001
  augment    15.64735    15.64734    15.66231    -0.00002     0.00000     0.00000
  Kinetic   325.70398   325.70404   326.46365    -0.00003    -0.00001    -0.00002
  Fock        0.00000     0.00000     0.00000     0.00000     0.00000     0.00000
  vdW        -0.06405    -0.06405     0.01673     0.00000     0.00000    -0.00000
  -------------------------------------------------------------------------------------
  Total      18.48922    18.48930    19.04496     0.00003    -0.00004    -0.00006
  in kB    1335.52830  1335.53356  1375.67105     0.00239    -0.00289    -0.00411
  external pressure =     1348.91 kB  Pullay stress =        0.00 kB


 VOLUME and BASIS-vectors are now :
 -----------------------------------------------------------------------------
  energy-cutoff  :     1500.00
  volume of cell :       22.18
      direct lattice vectors                 reciprocal lattice vectors
     2.809692000  0.000000000  0.000000000     0.355910897  0.000000000  0.000000000
     0.000000000  2.809692000  0.000000000     0.000000000  0.355910897  0.000000000
     0.000000000  0.000000000  2.809692000     0.000000000  0.000000000  0.355910897

  length of vectors
     2.809692000  2.809692000  2.809692000     0.355910897  0.355910897  0.355910897


 FORCES acting on ions
    electron-ion (+dipol)            ewald-force                    non-local-force                 convergence-correction
 -----------------------------------------------------------------------------------------------
   0.177E+02 0.177E+02 -.170E+02   -.195E+02 -.195E+02 0.189E+02   0.301E+01 0.301E+01 -.292E+01   -.957E-04 -.624E-04 0.130E-03
   -.177E+02 -.177E+02 -.170E+02   0.195E+02 0.195E+02 0.189E+02   -.301E+01 -.301E+01 -.292E+01   0.801E-04 0.412E-04 0.151E-03
   0.177E+02 -.177E+02 -.170E+02   -.195E+02 0.195E+02 0.189E+02   0.301E+01 -.301E+01 -.292E+01   -.768E-04 0.590E-04 0.834E-04
   -.177E+02 0.177E+02 -.170E+02   0.195E+02 -.195E+02 0.189E+02   -.301E+01 0.301E+01 -.292E+01   0.858E-04 -.409E-04 0.970E-04
   0.219E-03 0.426E-03 0.196E+02   -.114E-13 -.111E-13 -.379E+02   0.236E-03 0.398E-03 0.203E+02   -.611E-03 -.781E-03 0.173E-02
   -.188E-03 -.337E-03 0.196E+02   -.367E-14 -.743E-14 -.379E+02   -.231E-03 -.333E-03 0.203E+02   0.205E-03 0.647E-03 0.772E-03
 -----------------------------------------------------------------------------------------------
   0.616E-04 0.762E-04 -.288E+02   -.439E-14 -.427E-14 0.000E+00   0.311E-04 0.509E-04 0.288E+02   -.413E-03 -.137E-03 0.296E-02
 
 
 POSITION                                       TOTAL-FORCE (eV/Angst)
 -----------------------------------------------------------------------------------
      2.19965      2.19965      0.61005         1.185668      1.185728     -0.998249
      0.61005      0.61005      0.61005        -1.185551     -1.185747     -0.998257
      0.79480      2.01489      2.01489         1.185718     -1.185754     -0.998264
      2.01489      0.79480      2.01489        -1.185572      1.185750     -0.998223
      0.00000      0.00000      0.00000        -0.000102      0.000045      1.996506
      1.40485      1.40485      1.40485        -0.000161     -0.000022      1.996488
 -----------------------------------------------------------------------------------
    total drift:                               -0.000320     -0.000009      0.002179


--------------------------------------------------------------------------------------------------------



  FREE ENERGIE OF THE ION-ELECTRON SYSTEM (eV)
  ---------------------------------------------------
  free  energy   TOTEN  =       -17.94292080 eV

  energy  without entropy=      -17.94292080  energy(sigma->0) =      -17.94292080
 


--------------------------------------------------------------------------------------------------------


    POTLOK:  cpu time      0.2872: real time      0.2872


--------------------------------------------------------------------------------------------------------


     LOOP+:  cpu time      4.1411: real time      4.1424
    4ORBIT:  cpu time      0.0000: real time      0.0000

 total amount of memory used by VASP MPI-rank0    67512. kBytes
=======================================================================

   base      :      30000. kBytes
   nonl-proj :        659. kBytes
   fftplans  :      13060. kBytes
   grid      :      23203. kBytes
   one-center:         18. kBytes
   wavefun   :        572. kBytes
 
  
  
 General timing and accounting informations for this job:
 ========================================================
  
                  Total CPU time used (sec):        4.566
                            User time (sec):        4.380
                          System time (sec):        0.186
                         Elapsed time (sec):        4.999
  
                   Maximum memory used (kb):      192200.
                   Average memory used (kb):          N/A
  
                          Minor page faults:        45703
                          Major page faults:            0
                 Voluntary context switches:         1194
