       N       E                     dE             d eps       ncg     rms          rms(c)
DAV:   1     0.122200782268E+03    0.12220E+03   -0.19098E+04    24   0.305E+03
DAV:   2    -0.165969717718E+02   -0.13880E+03   -0.11430E+03    28   0.398E+02
DAV:   3    -0.202992773692E+02   -0.37023E+01   -0.36934E+01    28   0.624E+01
DAV:   4    -0.203198750759E+02   -0.20598E-01   -0.20597E-01    24   0.445E+00
DAV:   5    -0.203201656426E+02   -0.29057E-03   -0.29056E-03    28   0.413E-01    0.125E+01
RMM:   6    -0.162886077855E+02    0.40316E+01   -0.11098E+01    24   0.288E+01    0.404E+00
RMM:   7    -0.163240501587E+02   -0.35442E-01   -0.16096E+00    24   0.117E+01    0.261E+00
RMM:   8    -0.164113373307E+02   -0.87287E-01   -0.99131E-02    24   0.440E+00    0.816E-01
RMM:   9    -0.164034168431E+02    0.79205E-02   -0.15103E-02    25   0.118E+00    0.116E-01
RMM:  10    -0.164038703633E+02   -0.45352E-03   -0.46505E-03    25   0.626E-01    0.104E-01
RMM:  11    -0.164036882284E+02    0.18213E-03   -0.47779E-04    24   0.234E-01    0.209E-02
RMM:  12    -0.164036867951E+02    0.14333E-05   -0.42861E-05    24   0.668E-02    0.863E-03
RMM:  13    -0.164036872086E+02   -0.41351E-06   -0.28090E-06    16   0.159E-02
   1 F= -.17146844E+02 E0= -.17146844E+02  d E =-.213850E-13
