    6    6    1    1
  0.3696791E+01  0.2809692E-09  0.2809692E-09  0.2809692E-09  0.5000000E-15
  1.000000000000000E-004
  CAR 
 unknown system                          
     16      1     12
 
  0.0000000E+00  0.0000000E+00  0.0000000E+00  0.1000000E+01
      1        -19.874488   1.000000
      2        -13.617957   1.000000
      3         -3.565531   1.000000
      4         -3.565507   1.000000
      5         -2.854022   1.000000
      6          3.785983   1.000000
      7          3.923286   1.000000
      8          3.923312   1.000000
      9         12.236850   0.000000
     10         14.668291   0.000000
     11         14.680346   0.000000
     12         20.703462   0.000000
