       N       E                     dE             d eps       ncg     rms          rms(c)
DAV:   1     0.119262936536E+03    0.11926E+03   -0.19560E+04    24   0.312E+03
DAV:   2    -0.255428953796E+02   -0.14481E+03   -0.11987E+03    28   0.413E+02
DAV:   3    -0.294866220192E+02   -0.39437E+01   -0.39338E+01    28   0.652E+01
DAV:   4    -0.295058659320E+02   -0.19244E-01   -0.19244E-01    24   0.478E+00
DAV:   5    -0.295060770891E+02   -0.21116E-03   -0.21116E-03    32   0.435E-01    0.124E+01
RMM:   6    -0.204031052808E+02    0.91030E+01   -0.67394E+00    24   0.233E+01    0.492E+00
RMM:   7    -0.204184410605E+02   -0.15336E-01   -0.39979E+00    24   0.210E+01    0.296E+00
RMM:   8    -0.206767910115E+02   -0.25835E+00   -0.14993E+00    24   0.137E+01    0.333E+00
RMM:   9    -0.204438874039E+02    0.23290E+00   -0.64767E-01    25   0.751E+00    0.303E-01
RMM:  10    -0.204463637071E+02   -0.24763E-02   -0.70826E-02    24   0.288E+00    0.204E-01
RMM:  11    -0.204460267556E+02    0.33695E-03   -0.29305E-03    27   0.541E-01    0.120E-01
RMM:  12    -0.204457988917E+02    0.22786E-03   -0.37602E-04    28   0.205E-01    0.796E-02
RMM:  13    -0.204457422846E+02    0.56607E-04   -0.48080E-05    26   0.954E-02    0.515E-02
RMM:  14    -0.204456869259E+02    0.55359E-04   -0.87389E-05    26   0.951E-02    0.215E-02
RMM:  15    -0.204456796665E+02    0.72594E-05   -0.13503E-05    26   0.432E-02    0.108E-02
RMM:  16    -0.204456780415E+02    0.16250E-05   -0.15966E-06    19   0.115E-02    0.854E-03
RMM:  17    -0.204456757968E+02    0.22447E-05   -0.13426E-06    16   0.126E-02    0.481E-03
RMM:  18    -0.204456742546E+02    0.15422E-05   -0.71520E-07    15   0.897E-03    0.190E-03
RMM:  19    -0.204456737157E+02    0.53887E-06   -0.18923E-07    15   0.443E-03
   1 F= -.20445674E+02 E0= -.20445674E+02  d E =-.116013E-11
