   6   6   0   0
  0.3696791E+01  0.2809692E-09  0.2809692E-09  0.2809692E-09  0.5000000E-15
  1.000000000000000E-004
  CAR 
 unknown system                          
     21.27987200    -19.76150583  301      5.03432661      1.00000000
    -19.762  0.0000E+00  0.0000E+00
    -19.625  0.0000E+00  0.0000E+00
    -19.488  0.0000E+00  0.0000E+00
    -19.351  0.0000E+00  0.0000E+00
    -19.214  0.0000E+00  0.0000E+00
    -19.077  0.0000E+00  0.0000E+00
    -18.941  0.0000E+00  0.0000E+00
    -18.804  0.0000E+00  0.0000E+00
    -18.667  0.0000E+00  0.0000E+00
    -18.530  0.0000E+00  0.0000E+00
    -18.393  0.0000E+00  0.0000E+00
    -18.257  0.0000E+00  0.0000E+00
    -18.120  0.1772E-08  0.2424E-09
    -17.983  0.1009E+00  0.1380E-01
    -17.846  0.1335E+02  0.1841E+01
    -17.709  0.1165E+01  0.2000E+01
    -17.573  0.9626E-06  0.2000E+01
    -17.436  0.0000E+00  0.2000E+01
    -17.299  0.0000E+00  0.2000E+01
    -17.162  0.0000E+00  0.2000E+01
    -17.025  0.0000E+00  0.2000E+01
    -16.889  0.0000E+00  0.2000E+01
    -16.752  0.0000E+00  0.2000E+01
    -16.615  0.0000E+00  0.2000E+01
    -16.478  0.0000E+00  0.2000E+01
    -16.341  0.0000E+00  0.2000E+01
    -16.205  0.0000E+00  0.2000E+01
    -16.068  0.0000E+00  0.2000E+01
    -15.931  0.0000E+00  0.2000E+01
    -15.794  0.0000E+00  0.2000E+01
    -15.657  0.0000E+00  0.2000E+01
    -15.521  0.0000E+00  0.2000E+01
    -15.384  0.0000E+00  0.2000E+01
    -15.247  0.0000E+00  0.2000E+01
    -15.110  0.0000E+00  0.2000E+01
    -14.973  0.0000E+00  0.2000E+01
    -14.837  0.0000E+00  0.2000E+01
    -14.700  0.0000E+00  0.2000E+01
    -14.563  0.0000E+00  0.2000E+01
    -14.426  0.0000E+00  0.2000E+01
    -14.289  0.0000E+00  0.2000E+01
    -14.153  0.0000E+00  0.2000E+01
    -14.016  0.0000E+00  0.2000E+01
    -13.879  0.0000E+00  0.2000E+01
    -13.742  0.0000E+00  0.2000E+01
    -13.605  0.0000E+00  0.2000E+01
    -13.468  0.0000E+00  0.2000E+01
    -13.332  0.0000E+00  0.2000E+01
    -13.195  0.0000E+00  0.2000E+01
    -13.058  0.0000E+00  0.2000E+01
    -12.921  0.0000E+00  0.2000E+01
    -12.784  0.0000E+00  0.2000E+01
    -12.648  0.0000E+00  0.2000E+01
    -12.511  0.0000E+00  0.2000E+01
    -12.374  0.0000E+00  0.2000E+01
    -12.237  0.0000E+00  0.2000E+01
    -12.100  0.0000E+00  0.2000E+01
    -11.964  0.0000E+00  0.2000E+01
    -11.827  0.0000E+00  0.2000E+01
    -11.690  0.0000E+00  0.2000E+01
    -11.553  0.0000E+00  0.2000E+01
    -11.416  0.0000E+00  0.2000E+01
    -11.280  0.1220E-04  0.2000E+01
    -11.143  0.2612E+01  0.2357E+01
    -11.006  0.1198E+02  0.3997E+01
    -10.869  0.2331E-01  0.4000E+01
    -10.732  0.6733E-10  0.4000E+01
    -10.596  0.0000E+00  0.4000E+01
    -10.459  0.0000E+00  0.4000E+01
    -10.322  0.0000E+00  0.4000E+01
    -10.185  0.0000E+00  0.4000E+01
    -10.048  0.0000E+00  0.4000E+01
     -9.912  0.0000E+00  0.4000E+01
     -9.775  0.0000E+00  0.4000E+01
     -9.638  0.0000E+00  0.4000E+01
     -9.501  0.0000E+00  0.4000E+01
     -9.364  0.0000E+00  0.4000E+01
     -9.228  0.0000E+00  0.4000E+01
     -9.091  0.0000E+00  0.4000E+01
     -8.954  0.0000E+00  0.4000E+01
     -8.817  0.0000E+00  0.4000E+01
     -8.680  0.0000E+00  0.4000E+01
     -8.544  0.0000E+00  0.4000E+01
     -8.407  0.0000E+00  0.4000E+01
     -8.270  0.0000E+00  0.4000E+01
     -8.133  0.0000E+00  0.4000E+01
     -7.996  0.0000E+00  0.4000E+01
     -7.860  0.0000E+00  0.4000E+01
     -7.723  0.0000E+00  0.4000E+01
     -7.586  0.0000E+00  0.4000E+01
     -7.449  0.0000E+00  0.4000E+01
     -7.312  0.0000E+00  0.4000E+01
     -7.175  0.0000E+00  0.4000E+01
     -7.039  0.0000E+00  0.4000E+01
     -6.902  0.0000E+00  0.4000E+01
     -6.765  0.0000E+00  0.4000E+01
     -6.628  0.0000E+00  0.4000E+01
     -6.491  0.0000E+00  0.4000E+01
     -6.355  0.0000E+00  0.4000E+01
     -6.218  0.0000E+00  0.4000E+01
     -6.081  0.0000E+00  0.4000E+01
     -5.944  0.0000E+00  0.4000E+01
     -5.807  0.0000E+00  0.4000E+01
     -5.671  0.0000E+00  0.4000E+01
     -5.534  0.0000E+00  0.4000E+01
     -5.397  0.0000E+00  0.4000E+01
     -5.260  0.0000E+00  0.4000E+01
     -5.123  0.0000E+00  0.4000E+01
     -4.987  0.0000E+00  0.4000E+01
     -4.850  0.0000E+00  0.4000E+01
     -4.713  0.0000E+00  0.4000E+01
     -4.576  0.0000E+00  0.4000E+01
     -4.439  0.0000E+00  0.4000E+01
     -4.303  0.0000E+00  0.4000E+01
     -4.166  0.0000E+00  0.4000E+01
     -4.029  0.0000E+00  0.4000E+01
     -3.892  0.0000E+00  0.4000E+01
     -3.755  0.0000E+00  0.4000E+01
     -3.619  0.0000E+00  0.4000E+01
     -3.482  0.0000E+00  0.4000E+01
     -3.345  0.0000E+00  0.4000E+01
     -3.208  0.0000E+00  0.4000E+01
     -3.071  0.0000E+00  0.4000E+01
     -2.935  0.0000E+00  0.4000E+01
     -2.798  0.0000E+00  0.4000E+01
     -2.661  0.4869E-14  0.4000E+01
     -2.524  0.3302E-03  0.4000E+01
     -2.387  0.1418E+02  0.5940E+01
     -2.251  0.2966E+02  0.9998E+01
     -2.114  0.1419E-01  0.1000E+02
     -1.977  0.7299E-11  0.1000E+02
     -1.840  0.0000E+00  0.1000E+02
     -1.703  0.0000E+00  0.1000E+02
     -1.566  0.0000E+00  0.1000E+02
     -1.430  0.0000E+00  0.1000E+02
     -1.293  0.0000E+00  0.1000E+02
     -1.156  0.0000E+00  0.1000E+02
     -1.019  0.0000E+00  0.1000E+02
     -0.882  0.0000E+00  0.1000E+02
     -0.746  0.0000E+00  0.1000E+02
     -0.609  0.0000E+00  0.1000E+02
     -0.472  0.0000E+00  0.1000E+02
     -0.335  0.0000E+00  0.1000E+02
     -0.198  0.0000E+00  0.1000E+02
     -0.062  0.0000E+00  0.1000E+02
      0.075  0.0000E+00  0.1000E+02
      0.212  0.0000E+00  0.1000E+02
      0.349  0.0000E+00  0.1000E+02
      0.486  0.0000E+00  0.1000E+02
      0.622  0.0000E+00  0.1000E+02
      0.759  0.0000E+00  0.1000E+02
      0.896  0.0000E+00  0.1000E+02
      1.033  0.0000E+00  0.1000E+02
      1.170  0.0000E+00  0.1000E+02
      1.306  0.0000E+00  0.1000E+02
      1.443  0.0000E+00  0.1000E+02
      1.580  0.0000E+00  0.1000E+02
      1.717  0.0000E+00  0.1000E+02
      1.854  0.0000E+00  0.1000E+02
      1.990  0.0000E+00  0.1000E+02
      2.127  0.0000E+00  0.1000E+02
      2.264  0.0000E+00  0.1000E+02
      2.401  0.0000E+00  0.1000E+02
      2.538  0.0000E+00  0.1000E+02
      2.674  0.0000E+00  0.1000E+02
      2.811  0.0000E+00  0.1000E+02
      2.948  0.0000E+00  0.1000E+02
      3.085  0.0000E+00  0.1000E+02
      3.222  0.0000E+00  0.1000E+02
      3.358  0.0000E+00  0.1000E+02
      3.495  0.0000E+00  0.1000E+02
      3.632  0.0000E+00  0.1000E+02
      3.769  0.0000E+00  0.1000E+02
      3.906  0.0000E+00  0.1000E+02
      4.042  0.0000E+00  0.1000E+02
      4.179  0.0000E+00  0.1000E+02
      4.316  0.0000E+00  0.1000E+02
      4.453  0.0000E+00  0.1000E+02
      4.590  0.1554E-04  0.1000E+02
      4.727  0.6050E+01  0.1083E+02
      4.863  0.3769E+02  0.1598E+02
      5.000  0.1193E+00  0.1600E+02
      5.137  0.6459E-09  0.1600E+02
      5.274  0.0000E+00  0.1600E+02
      5.411  0.0000E+00  0.1600E+02
      5.547  0.0000E+00  0.1600E+02
      5.684  0.0000E+00  0.1600E+02
      5.821  0.0000E+00  0.1600E+02
      5.958  0.0000E+00  0.1600E+02
      6.095  0.0000E+00  0.1600E+02
      6.231  0.0000E+00  0.1600E+02
      6.368  0.0000E+00  0.1600E+02
      6.505  0.0000E+00  0.1600E+02
      6.642  0.0000E+00  0.1600E+02
      6.779  0.0000E+00  0.1600E+02
      6.915  0.0000E+00  0.1600E+02
      7.052  0.0000E+00  0.1600E+02
      7.189  0.0000E+00  0.1600E+02
      7.326  0.0000E+00  0.1600E+02
      7.463  0.0000E+00  0.1600E+02
      7.599  0.0000E+00  0.1600E+02
      7.736  0.0000E+00  0.1600E+02
      7.873  0.0000E+00  0.1600E+02
      8.010  0.0000E+00  0.1600E+02
      8.147  0.0000E+00  0.1600E+02
      8.283  0.0000E+00  0.1600E+02
      8.420  0.0000E+00  0.1600E+02
      8.557  0.0000E+00  0.1600E+02
      8.694  0.0000E+00  0.1600E+02
      8.831  0.0000E+00  0.1600E+02
      8.967  0.0000E+00  0.1600E+02
      9.104  0.0000E+00  0.1600E+02
      9.241  0.0000E+00  0.1600E+02
      9.378  0.0000E+00  0.1600E+02
      9.515  0.0000E+00  0.1600E+02
      9.651  0.0000E+00  0.1600E+02
      9.788  0.0000E+00  0.1600E+02
      9.925  0.0000E+00  0.1600E+02
     10.062  0.0000E+00  0.1600E+02
     10.199  0.0000E+00  0.1600E+02
     10.336  0.0000E+00  0.1600E+02
     10.472  0.0000E+00  0.1600E+02
     10.609  0.0000E+00  0.1600E+02
     10.746  0.0000E+00  0.1600E+02
     10.883  0.0000E+00  0.1600E+02
     11.020  0.0000E+00  0.1600E+02
     11.156  0.0000E+00  0.1600E+02
     11.293  0.0000E+00  0.1600E+02
     11.430  0.0000E+00  0.1600E+02
     11.567  0.1298E-13  0.1600E+02
     11.704  0.3212E-03  0.1600E+02
     11.840  0.6058E+01  0.1683E+02
     11.977  0.8560E+01  0.1800E+02
     12.114  0.1894E-02  0.1800E+02
     12.251  0.0000E+00  0.1800E+02
     12.388  0.0000E+00  0.1800E+02
     12.524  0.0000E+00  0.1800E+02
     12.661  0.0000E+00  0.1800E+02
     12.798  0.0000E+00  0.1800E+02
     12.935  0.0000E+00  0.1800E+02
     13.072  0.0000E+00  0.1800E+02
     13.208  0.0000E+00  0.1800E+02
     13.345  0.0000E+00  0.1800E+02
     13.482  0.0000E+00  0.1800E+02
     13.619  0.0000E+00  0.1800E+02
     13.756  0.0000E+00  0.1800E+02
     13.892  0.0000E+00  0.1800E+02
     14.029  0.0000E+00  0.1800E+02
     14.166  0.0000E+00  0.1800E+02
     14.303  0.2886E-08  0.1800E+02
     14.440  0.1847E+00  0.1803E+02
     14.576  0.2658E+02  0.2166E+02
     14.713  0.2470E+01  0.2200E+02
     14.850  0.2286E-05  0.2200E+02
     14.987  0.0000E+00  0.2200E+02
     15.124  0.0000E+00  0.2200E+02
     15.260  0.0000E+00  0.2200E+02
     15.397  0.0000E+00  0.2200E+02
     15.534  0.0000E+00  0.2200E+02
     15.671  0.0000E+00  0.2200E+02
     15.808  0.0000E+00  0.2200E+02
     15.944  0.0000E+00  0.2200E+02
     16.081  0.0000E+00  0.2200E+02
     16.218  0.0000E+00  0.2200E+02
     16.355  0.0000E+00  0.2200E+02
     16.492  0.0000E+00  0.2200E+02
     16.629  0.0000E+00  0.2200E+02
     16.765  0.0000E+00  0.2200E+02
     16.902  0.0000E+00  0.2200E+02
     17.039  0.0000E+00  0.2200E+02
     17.176  0.0000E+00  0.2200E+02
     17.313  0.0000E+00  0.2200E+02
     17.449  0.0000E+00  0.2200E+02
     17.586  0.0000E+00  0.2200E+02
     17.723  0.0000E+00  0.2200E+02
     17.860  0.0000E+00  0.2200E+02
     17.997  0.0000E+00  0.2200E+02
     18.133  0.0000E+00  0.2200E+02
     18.270  0.0000E+00  0.2200E+02
     18.407  0.0000E+00  0.2200E+02
     18.544  0.0000E+00  0.2200E+02
     18.681  0.0000E+00  0.2200E+02
     18.817  0.0000E+00  0.2200E+02
     18.954  0.0000E+00  0.2200E+02
     19.091  0.0000E+00  0.2200E+02
     19.228  0.9626E-06  0.2200E+02
     19.365  0.1165E+01  0.2216E+02
     19.501  0.1335E+02  0.2399E+02
     19.638  0.1009E+00  0.2400E+02
     19.775  0.1772E-08  0.2400E+02
     19.912  0.0000E+00  0.2400E+02
     20.049  0.0000E+00  0.2400E+02
     20.185  0.0000E+00  0.2400E+02
     20.322  0.0000E+00  0.2400E+02
     20.459  0.0000E+00  0.2400E+02
     20.596  0.0000E+00  0.2400E+02
     20.733  0.0000E+00  0.2400E+02
     20.869  0.0000E+00  0.2400E+02
     21.006  0.0000E+00  0.2400E+02
     21.143  0.0000E+00  0.2400E+02
     21.280  0.0000E+00  0.2400E+02
