<?xml version="1.0" encoding="ISO-8859-1"?>
<modeling>
 <generator>
  <i name="program" type="string">vasp </i>
  <i name="version" type="string">6.4.3  </i>
  <i name="subversion" type="string">19Mar24 (build Jun 21 2025 18:38:16) complex                          parallel </i>
  <i name="platform" type="string">LinuxIFC </i>
  <i name="date" type="string">2025 06 22 </i>
  <i name="time" type="string">19:16:24 </i>
 </generator>
 <incar>
  <i type="string" name="PREC">A</i>
  <i type="string" name="ALGO">fast</i>
  <i type="int" name="NELMIN">     4</i>
  <i type="int" name="IBRION">    -1</i>
  <i name="EDIFF">      0.00000100</i>
  <i type="int" name="NSW">     0</i>
  <i type="int" name="ISIF">     2</i>
  <i type="int" name="ISYM">     0</i>
  <i name="ENCUT">   1500.00000000</i>
  <i type="logical" name="LREAL"> F  </i>
  <i type="int" name="ISMEAR">     0</i>
  <i name="SIGMA">      0.05000000</i>
  <i name="PSTRESS">      0.00000000</i>
  <i type="logical" name="LWAVE"> F  </i>
  <i type="logical" name="LCHARG"> F  </i>
  <i type="logical" name="LASPH"> T  </i>
  <i type="string" name="GGA">PE</i>
 </incar>
 <primitive_cell>
  <structure name="primitive_cell" >
   <crystal>
    <varray name="basis" >
     <v>       2.80969200       0.00000000       0.00000000 </v>
     <v>       0.00000000       2.80969200       0.00000000 </v>
     <v>       0.00000000       0.00000000       2.80969200 </v>
    </varray>
    <i name="volume">     22.18074580 </i>
    <varray name="rec_basis" >
     <v>       0.35591090       0.00000000       0.00000000 </v>
     <v>       0.00000000       0.35591090       0.00000000 </v>
     <v>       0.00000000       0.00000000       0.35591090 </v>
    </varray>
   </crystal>
   <varray name="positions" >
    <v>       0.75000000       0.75000000       0.25000000 </v>
    <v>       0.25000000       0.25000000       0.25000000 </v>
    <v>       0.25000000       0.75000000       0.75000000 </v>
    <v>       0.75000000       0.25000000       0.75000000 </v>
    <v>       0.00000000       0.00000000       0.00000000 </v>
    <v>       0.50000000       0.50000000       0.50000000 </v>
   </varray>
  </structure>
  <varray name="primitive_index" >
   <v type="int" >        1 </v>
   <v type="int" >        2 </v>
   <v type="int" >        3 </v>
   <v type="int" >        4 </v>
   <v type="int" >        5 </v>
   <v type="int" >        6 </v>
  </varray>
 </primitive_cell>
 <kpoints>
  <generation param="Gamma">
   <v type="int" name="divisions">       1        1        1 </v>
   <v name="usershift">      0.00000000       0.00000000       0.00000000 </v>
   <v name="genvec1">      1.00000000       0.00000000       0.00000000 </v>
   <v name="genvec2">      0.00000000       1.00000000       0.00000000 </v>
   <v name="genvec3">      0.00000000       0.00000000       1.00000000 </v>
   <v name="shift">      0.00000000       0.00000000       0.00000000 </v>
  </generation>
  <varray name="kpointlist" >
   <v>       0.00000000       0.00000000       0.00000000 </v>
  </varray>
  <varray name="weights" >
   <v>       1.00000000 </v>
  </varray>
 </kpoints>
 <parameters>
  <separator name="general" >
   <i type="string" name="SYSTEM">unknown system</i>
   <i type="logical" name="LCOMPAT"> F  </i>
  </separator>
  <separator name="electronic" >
   <i type="string" name="PREC">a</i>
   <i name="ENMAX">   1500.00000000</i>
   <i name="ENAUG">    605.39200000</i>
   <i name="EDIFF">      0.00000100</i>
   <i type="int" name="IALGO">    68</i>
   <i type="int" name="IWAVPR">    10</i>
   <i type="int" name="NBANDS">    12</i>
   <i type="int" name="NBANDSLOW">    -1</i>
   <i type="int" name="NBANDSHIGH">    -1</i>
   <i name="NELECT">     16.00000000</i>
   <i type="int" name="TURBO">     0</i>
   <i type="int" name="IRESTART">     0</i>
   <i type="int" name="NREBOOT">     0</i>
   <i type="int" name="NMIN">     0</i>
   <i name="EREF">      0.00000000</i>
   <separator name="electronic smearing" >
    <i type="int" name="ISMEAR">     0</i>
    <i name="SIGMA">      0.05000000</i>
    <i name="KSPACING">      0.50000000</i>
    <i type="logical" name="KGAMMA"> T  </i>
    <i type="logical" name="KBLOWUP"> T  </i>
   </separator>
   <separator name="electronic projectors" >
    <i type="logical" name="LREAL"> F  </i>
    <v name="ROPT">      0.00000000      0.00000000</v>
    <i type="int" name="LMAXPAW">  -100</i>
    <i type="int" name="LMAXMIX">     2</i>
    <i type="logical" name="NLSPLINE"> F  </i>
   </separator>
   <separator name="electronic startup" >
    <i type="int" name="ISTART">     0</i>
    <i type="int" name="ICHARG">     2</i>
    <i type="int" name="INIWAV">     1</i>
   </separator>
   <separator name="electronic spin" >
    <i type="int" name="ISPIN">     1</i>
    <i type="logical" name="LNONCOLLINEAR"> F  </i>
    <v name="MAGMOM">      1.00000000      1.00000000      1.00000000      1.00000000      1.00000000      1.00000000</v>
    <i name="NUPDOWN">     -1.00000000</i>
    <i type="logical" name="LSORBIT"> F  </i>
    <v name="SAXIS">      0.00000000      0.00000000      1.00000000</v>
    <i type="logical" name="LSPIRAL"> F  </i>
    <v name="QSPIRAL">      0.00000000      0.00000000      0.00000000</v>
    <i type="logical" name="LZEROZ"> F  </i>
   </separator>
   <separator name="electronic exchange-correlation" >
    <i type="logical" name="LASPH"> T  </i>
   </separator>
   <separator name="electronic convergence" >
    <i type="int" name="NELM">    60</i>
    <i type="int" name="NELMDL">    -5</i>
    <i type="int" name="NELMIN">     4</i>
    <i name="ENINI">   1500.00000000</i>
    <separator name="electronic convergence detail" >
     <i type="logical" name="LDIAG"> T  </i>
     <i type="logical" name="LSUBROT"> F  </i>
     <i name="WEIMIN">      0.00000000</i>
     <i name="EBREAK">      0.00000002</i>
     <i name="DEPER">      0.30000000</i>
     <i type="int" name="NRMM">     4</i>
     <i name="TIME">      0.40000000</i>
    </separator>
   </separator>
   <separator name="electronic mixer" >
    <i name="AMIX">      0.40000000</i>
    <i name="BMIX">      1.00000000</i>
    <i name="AMIN">      0.10000000</i>
    <i name="AMIX_MAG">      1.60000000</i>
    <i name="BMIX_MAG">      1.00000000</i>
    <separator name="electronic mixer details" >
     <i type="int" name="IMIX">     4</i>
     <i type="logical" name="MIXFIRST"> F  </i>
     <i type="int" name="MAXMIX">   -45</i>
     <i name="WC">    100.00000000</i>
     <i type="int" name="INIMIX">     1</i>
     <i type="int" name="MIXPRE">     1</i>
     <i type="int" name="MREMOVE">     5</i>
    </separator>
   </separator>
   <separator name="electronic dipolcorrection" >
    <i type="logical" name="LDIPOL"> F  </i>
    <i type="logical" name="LMONO"> F  </i>
    <i type="int" name="IDIPOL">     0</i>
    <i name="EPSILON">      1.00000000</i>
    <v name="DIPOL">   -100.00000000   -100.00000000   -100.00000000</v>
    <i name="EFIELD">      0.00000000</i>
    <i type="logical" name="LVACPOTAV"> F  </i>
   </separator>
  </separator>
  <separator name="grids" >
   <i type="int" name="NGX">    36</i>
   <i type="int" name="NGY">    36</i>
   <i type="int" name="NGZ">    36</i>
   <i type="int" name="NGXF">    72</i>
   <i type="int" name="NGYF">    72</i>
   <i type="int" name="NGZF">    72</i>
   <i type="logical" name="ADDGRID"> F  </i>
  </separator>
  <separator name="ionic" >
   <i type="int" name="NSW">     0</i>
   <i type="int" name="IBRION">    -1</i>
   <i type="int" name="MDALGO">     0</i>
   <i type="int" name="ISIF">     2</i>
   <i name="PSTRESS">      0.00000000</i>
   <i name="EDIFFG">      0.00001000</i>
   <i type="int" name="NFREE">     0</i>
   <i name="POTIM">      0.50000000</i>
   <i name="SMASS">     -3.00000000</i>
   <i name="SCALEE">      1.00000000</i>
  </separator>
  <separator name="ionic md" >
   <i name="TEBEG">      0.00010000</i>
   <i name="TEEND">      0.00010000</i>
   <i type="int" name="NBLOCK">     1</i>
   <i type="int" name="KBLOCK">     1</i>
   <i type="int" name="NPACO">   256</i>
   <i name="APACO">     10.00000000</i>
  </separator>
  <separator name="symmetry" >
   <i type="int" name="ISYM">     0</i>
   <i name="SYMPREC">      0.00001000</i>
  </separator>
  <separator name="dos" >
   <i type="int" name="LORBIT">     0</i>
   <v name="RWIGS">     -1.00000000     -1.00000000</v>
   <i type="int" name="NEDOS">   301</i>
   <i name="EMIN">     10.00000000</i>
   <i name="EMAX">    -10.00000000</i>
   <i name="EFERMI">      0.00000000</i>
  </separator>
  <separator name="writing" >
   <i type="int" name="NWRITE">     2</i>
   <i type="logical" name="LWAVE"> F  </i>
   <i type="logical" name="LDOWNSAMPLE"> F  </i>
   <i type="logical" name="LCHARG"> F  </i>
   <i type="logical" name="LPARD"> F  </i>
   <i type="logical" name="LVTOT"> F  </i>
   <i type="logical" name="LVHAR"> F  </i>
   <i type="logical" name="LELF"> F  </i>
   <i type="logical" name="LOPTICS"> F  </i>
   <v name="STM">      0.00000000      0.00000000      0.00000000      0.00000000      0.00000000      0.00000000      0.00000000</v>
  </separator>
  <separator name="performance" >
   <i type="int" name="NPAR">     1</i>
   <i type="int" name="NSIM">     4</i>
   <i type="int" name="NBLK">    -1</i>
   <i type="logical" name="LPLANE"> T  </i>
   <i type="logical" name="LSCALAPACK"> T  </i>
   <i type="logical" name="LSCAAWARE"> F  </i>
   <i type="logical" name="LSCALU"> F  </i>
   <i type="logical" name="LASYNC"> F  </i>
   <i type="logical" name="LORBITALREAL"> F  </i>
  </separator>
  <separator name="miscellaneous" >
   <i type="int" name="IDIOT">     3</i>
   <i type="int" name="PHON_NSTRUCT">    -1</i>
   <i type="logical" name="LMUSIC"> F  </i>
   <v name="POMASS">      1.00000000     16.00000000</v>
   <v name="DARWINR">      0.00000000      0.00000000</v>
   <v name="DARWINV">      1.00000000      1.00000000</v>
   <i type="logical" name="LCORR"> T  </i>
  </separator>
  <i type="logical" name="GGA_COMPAT"> T  </i>
  <i type="logical" name="LBERRY"> F  </i>
  <i type="int" name="ICORELEVEL">     0</i>
  <i type="logical" name="LDAU"> F  </i>
  <i type="int" name="I_CONSTRAINED_M">     0</i>
  <separator name="electronic exchange-correlation" >
   <i type="string" name="GGA    ">PE</i>
   <i type="string" name="XC_C">1</i>
   <i type="int" name="VOSKOWN">     0</i>
   <i type="logical" name="LHFCALC"> F  </i>
   <i type="string" name="PRECFOCK"></i>
   <i type="logical" name="LSYMGRAD"> F  </i>
   <i type="logical" name="LHFONE"> F  </i>
   <i type="logical" name="LRHFCALC"> F  </i>
   <i type="logical" name="LTHOMAS"> F  </i>
   <i type="logical" name="LMODELHF"> F  </i>
   <i type="logical" name="LFOCKACE"> F  </i>
   <i name="ENCUT4O">     -1.00000000</i>
   <i type="int" name="EXXOEP">     0</i>
   <i type="int" name="FOURORBIT">     0</i>
   <i name="AEXX">      0.00000000</i>
   <i name="HFALPHA">      0.00000000</i>
   <i name="MCALPHA">      0.00000000</i>
   <i name="ALDAX">      1.00000000</i>
   <i name="AGGAX">      1.00000000</i>
   <i name="AMGGAX">      1.00000000</i>
   <i name="ALDAC">      1.00000000</i>
   <i name="AGGAC">      1.00000000</i>
   <i name="AMGGAC">      1.00000000</i>
   <i type="int" name="NKREDX">     1</i>
   <i type="int" name="NKREDY">     1</i>
   <i type="int" name="NKREDZ">     1</i>
   <i type="logical" name="SHIFTRED"> F  </i>
   <i type="logical" name="ODDONLY"> F  </i>
   <i type="logical" name="EVENONLY"> F  </i>
   <i type="int" name="LMAXFOCK">     0</i>
   <i type="int" name="NMAXFOCKAE">     0</i>
   <i type="logical" name="LFOCKAEDFT"> F  </i>
   <i name="HFSCREEN">      0.00000000</i>
   <i name="HFSCREENC">      0.00000000</i>
   <i type="int" name="NBANDSGWLOW">     0</i>
  </separator>
  <separator name="vdW DFT" >
   <i type="logical" name="LUSE_VDW"> F  </i>
   <i type="int" name="IVDW_NL">    -1</i>
   <i type="logical" name="LSPIN_VDW"> F  </i>
   <i name="ZAB_VDW">     -0.84910000</i>
   <i name="GAMMA_VDW">      1.39626340</i>
   <i name="ALPHA_VDW">      0.00000000</i>
   <i name="PARAM1">      0.12340000</i>
   <i name="PARAM2">      1.00000000</i>
   <i name="BPARAM">      6.30000000</i>
   <i name="CPARAM">      0.00930000</i>
  </separator>
  <separator name="model GW" >
   <i type="int" name="MODEL_GW">     0</i>
   <i name="MODEL_EPS0">      2.21807458</i>
   <i name="MODEL_ALPHA">      1.00000000</i>
  </separator>
  <separator name="linear response parameters" >
   <i type="logical" name="LEPSILON"> F  </i>
   <i type="logical" name="LRPA"> F  </i>
   <i type="logical" name="LNABLA"> F  </i>
   <i type="logical" name="LVEL"> F  </i>
   <i name="CSHIFT">      0.10000000</i>
   <i name="OMEGAMAX">     -1.00000000</i>
   <i name="DEG_THRESHOLD">      0.00200000</i>
   <i name="RTIME">     -0.10000000</i>
   <i name="WPLASMAI">      0.00000000</i>
   <v name="DFIELD">      0.00000000      0.00000000      0.00000000</v>
   <v name="WPLASMA">      0.00000000      0.00000000      0.00000000      0.00000000      0.00000000      0.00000000      0.00000000      0.00000000      0.00000000</v>
  </separator>
  <separator name="orbital magnetization" >
   <i type="logical" name="NUCIND"> F  </i>
   <v name="MAGPOS">      0.00000000      0.00000000      0.00000000</v>
   <i type="logical" name="LNICSALL"> T  </i>
   <i type="logical" name="ORBITALMAG"> F  </i>
   <i type="logical" name="LMAGBLOCH"> F  </i>
   <i type="logical" name="LCHIMAG"> F  </i>
   <i type="logical" name="LGAUGE"> T  </i>
   <i type="int" name="MAGATOM">     0</i>
   <v name="MAGDIPOL">      0.00000000      0.00000000      0.00000000</v>
   <v name="AVECCONST">      0.00000000      0.00000000      0.00000000</v>
  </separator>
  <separator name="response functions" >
   <i type="logical" name="LALL_IN_ONE"> F  </i>
   <i type="int" name="IALL_IN_ONE">    -1</i>
   <i type="int" name="NBANDS_WAVE">    -1</i>
   <i type="logical" name="LFINITE_TEMPERATURE"> F  </i>
   <i type="logical" name="LADDER"> F  </i>
   <i type="logical" name="LRPAFORCE"> F  </i>
   <i type="logical" name="LFXC"> F  </i>
   <i type="logical" name="LHARTREE"> T  </i>
   <i type="int" name="IBSE">     0</i>
   <v type="int" name="KPOINT">    -1     0     0     0</v>
   <i type="logical" name="LTCTC"> F  </i>
   <i type="logical" name="LTCTE"> F  </i>
   <i type="logical" name="LTETE"> F  </i>
   <i type="logical" name="LTRIPLET"> F  </i>
   <i type="logical" name="LFXCEPS"> F  </i>
   <i type="logical" name="LFXHEG"> F  </i>
   <i type="int" name="NATURALO">     2</i>
   <i type="logical" name="LHOLEGF"> F  </i>
   <i type="logical" name="L2ORDER"> F  </i>
   <i type="logical" name="LDMP1"> F  </i>
   <i type="logical" name="LMP2LT"> F  </i>
   <i type="logical" name="LSMP2LT"> F  </i>
   <i type="logical" name="LGWLF"> F  </i>
   <i name="ENCUTGW">     -1.60000002</i>
   <i name="ENCUTGWSOFT">     -1.60000002</i>
   <i name="ENCUTLF">     -1.00000000</i>
   <i type="logical" name="ESF_SPLINES"> F  </i>
   <i name="ESF_CONV">      0.01000000</i>
   <i type="int" name="ESF_NINTER">    15</i>
   <i type="int" name="LMAXMP2">    -1</i>
   <i name="SCISSOR">      0.00000000</i>
   <i type="int" name="NOMEGA">     0</i>
   <i type="int" name="NOMEGAR">     0</i>
   <i type="int" name="NBANDSGW">    -1</i>
   <i type="int" name="NBANDSO">    -1</i>
   <i type="int" name="NBANDSV">    -1</i>
   <i type="int" name="NELMGW">     1</i>
   <i type="int" name="NELMHF">     1</i>
   <i type="int" name="DIM">     3</i>
   <i type="int" name="IESPILON">     4</i>
   <i type="int" name="ANTIRES">     0</i>
   <i name="OMEGAMAX">    -30.00000000</i>
   <i name="OMEGAMIN">    -30.00000000</i>
   <i name="OMEGATL">   -200.00000000</i>
   <i type="int" name="OMEGAGRID">     0</i>
   <i name="CSHIFT">     -0.10000000</i>
   <i type="logical" name="LSELFENERGY"> F  </i>
   <i type="logical" name="LSPECTRAL"> F  </i>
   <i type="logical" name="LSPECTRALGW"> F  </i>
   <i type="logical" name="LSINGLES"> F  </i>
   <i type="logical" name="LFERMIGW"> F  </i>
   <i type="logical" name="ODDONLYGW"> F  </i>
   <i type="logical" name="EVENONLYGW"> F  </i>
   <i type="int" name="NKREDLFX">     1</i>
   <i type="int" name="NKREDLFY">     1</i>
   <i type="int" name="NKREDLFZ">     1</i>
   <i type="int" name="MAXMEM">  2800</i>
   <i type="int" name="TELESCOPE">     0</i>
   <i type="int" name="NTAUPAR">    -1</i>
   <i type="int" name="NOMEGAPAR">    -1</i>
   <i name="DAMP_NEWTON">      0.80000001</i>
   <i name="LAMBDA">      1.00000000</i>
  </separator>
  <separator name="External order field" >
   <i name="OFIELD_KAPPA">      0.00000000</i>
   <v name="OFIELD_K">      0.00000000      0.00000000      0.00000000</v>
   <i name="OFIELD_Q6_NEAR">      0.00000000</i>
   <i name="OFIELD_Q6_FAR">      0.00000000</i>
   <i name="OFIELD_A">      0.00000000</i>
  </separator>
  <separator name="optional k-points parameters" >
   <i type="int" name="KPOINTS_OPT_MODE">     1</i>
   <i type="logical" name="LKPOINTS_OPT"> F  </i>
  </separator>
 </parameters>
 <atominfo>
  <atoms>       6 </atoms>
  <types>       2 </types>
  <array name="atoms" >
   <dimension dim="1">ion</dimension>
   <field type="string">element</field>
   <field type="int">atomtype</field>
   <set>
    <rc><c>H </c><c>   1</c></rc>
    <rc><c>H </c><c>   1</c></rc>
    <rc><c>H </c><c>   1</c></rc>
    <rc><c>H </c><c>   1</c></rc>
    <rc><c>O </c><c>   2</c></rc>
    <rc><c>O </c><c>   2</c></rc>
   </set>
  </array>
  <array name="atomtypes" >
   <dimension dim="1">type</dimension>
   <field type="int">atomspertype</field>
   <field type="string">element</field>
   <field>mass</field>
   <field>valence</field>
   <field type="string">pseudopotential</field>
   <set>
    <rc><c>   4</c><c>H </c><c>      1.00000000</c><c>      1.00000000</c><c>  PAW_PBE H 15Jun2001                   </c></rc>
    <rc><c>   2</c><c>O </c><c>     16.00000000</c><c>      6.00000000</c><c>  PAW_PBE O 08Apr2002                   </c></rc>
   </set>
  </array>
 </atominfo>
 <structure name="initialpos" >
  <crystal>
   <varray name="basis" >
    <v>       2.80969200       0.00000000       0.00000000 </v>
    <v>       0.00000000       2.80969200       0.00000000 </v>
    <v>       0.00000000       0.00000000       2.80969200 </v>
   </varray>
   <i name="volume">     22.18074580 </i>
   <varray name="rec_basis" >
    <v>       0.35591090       0.00000000       0.00000000 </v>
    <v>       0.00000000       0.35591090       0.00000000 </v>
    <v>       0.00000000       0.00000000       0.35591090 </v>
   </varray>
  </crystal>
  <varray name="positions" >
   <v>       0.75000000       0.75000000       0.25000000 </v>
   <v>       0.25000000       0.25000000       0.25000000 </v>
   <v>       0.25000000       0.75000000       0.75000000 </v>
   <v>       0.75000000       0.25000000       0.75000000 </v>
   <v>       0.00000000       0.00000000       0.00000000 </v>
   <v>       0.50000000       0.50000000       0.50000000 </v>
  </varray>
 </structure>
 <calculation>
  <scstep>
   <time name="dav">    0.08    0.08</time>
   <time name="total">    0.45    0.45</time>
   <energy>
    <i name="alphaZ">     40.44071196 </i>
    <i name="ewald">   -767.75865402 </i>
    <i name="hartreedc">   -176.87332325 </i>
    <i name="XCdc">     68.20351084 </i>
    <i name="pawpsdc">    701.63506352 </i>
    <i name="pawaedc">   -705.26791599 </i>
    <i name="eentropy">     -0.00000000 </i>
    <i name="bandstr">     47.11130245 </i>
    <i name="atom">    914.71008676 </i>
    <i name="e_fr_energy">    122.20078227 </i>
    <i name="e_wo_entrp">    122.20078227 </i>
    <i name="e_0_energy">    122.20078227 </i>
   </energy>
  </scstep>
  <scstep>
   <time name="dav">    0.03    0.03</time>
   <time name="total">    0.03    0.03</time>
   <energy>
    <i name="e_fr_energy">    -16.59697177 </i>
    <i name="e_wo_entrp">    -16.59697177 </i>
    <i name="e_0_energy">    -16.59697177 </i>
   </energy>
  </scstep>
  <scstep>
   <time name="dav">    0.03    0.03</time>
   <time name="total">    0.03    0.03</time>
   <energy>
    <i name="e_fr_energy">    -20.29927737 </i>
    <i name="e_wo_entrp">    -20.29927737 </i>
    <i name="e_0_energy">    -20.29927737 </i>
   </energy>
  </scstep>
  <scstep>
   <time name="dav">    0.02    0.02</time>
   <time name="total">    0.02    0.02</time>
   <energy>
    <i name="e_fr_energy">    -20.31987508 </i>
    <i name="e_wo_entrp">    -20.31987508 </i>
    <i name="e_0_energy">    -20.31987508 </i>
   </energy>
  </scstep>
  <scstep>
   <time name="dav">    0.03    0.03</time>
   <time name="total">    0.05    0.05</time>
   <energy>
    <i name="e_fr_energy">    -20.32016564 </i>
    <i name="e_wo_entrp">    -20.32016564 </i>
    <i name="e_0_energy">    -20.32016564 </i>
   </energy>
  </scstep>
  <scstep>
   <time name="diag">    0.01    0.01</time>
   <time name="diis">    0.03    0.03</time>
   <time name="orth">    0.00    0.00</time>
   <time name="total">    0.40    0.40</time>
   <energy>
    <i name="e_fr_energy">    -16.28860779 </i>
    <i name="e_wo_entrp">    -16.28860779 </i>
    <i name="e_0_energy">    -16.28860779 </i>
   </energy>
  </scstep>
  <scstep>
   <time name="diag">    0.01    0.01</time>
   <time name="diis">    0.02    0.02</time>
   <time name="orth">    0.00    0.00</time>
   <time name="total">    0.39    0.39</time>
   <energy>
    <i name="e_fr_energy">    -16.32405016 </i>
    <i name="e_wo_entrp">    -16.32405016 </i>
    <i name="e_0_energy">    -16.32405016 </i>
   </energy>
  </scstep>
  <scstep>
   <time name="diag">    0.01    0.01</time>
   <time name="diis">    0.02    0.02</time>
   <time name="orth">    0.00    0.00</time>
   <time name="total">    0.39    0.39</time>
   <energy>
    <i name="e_fr_energy">    -16.41133733 </i>
    <i name="e_wo_entrp">    -16.41133733 </i>
    <i name="e_0_energy">    -16.41133733 </i>
   </energy>
  </scstep>
  <scstep>
   <time name="diag">    0.01    0.01</time>
   <time name="diis">    0.03    0.03</time>
   <time name="orth">    0.00    0.00</time>
   <time name="total">    0.40    0.40</time>
   <energy>
    <i name="e_fr_energy">    -16.40341684 </i>
    <i name="e_wo_entrp">    -16.40341684 </i>
    <i name="e_0_energy">    -16.40341684 </i>
   </energy>
  </scstep>
  <scstep>
   <time name="diag">    0.01    0.01</time>
   <time name="diis">    0.03    0.03</time>
   <time name="orth">    0.00    0.00</time>
   <time name="total">    0.39    0.39</time>
   <energy>
    <i name="e_fr_energy">    -16.40387036 </i>
    <i name="e_wo_entrp">    -16.40387036 </i>
    <i name="e_0_energy">    -16.40387036 </i>
   </energy>
  </scstep>
  <scstep>
   <time name="diag">    0.01    0.01</time>
   <time name="diis">    0.02    0.02</time>
   <time name="orth">    0.00    0.00</time>
   <time name="total">    0.39    0.39</time>
   <energy>
    <i name="e_fr_energy">    -16.40368823 </i>
    <i name="e_wo_entrp">    -16.40368823 </i>
    <i name="e_0_energy">    -16.40368823 </i>
   </energy>
  </scstep>
  <scstep>
   <time name="diag">    0.01    0.01</time>
   <time name="diis">    0.02    0.02</time>
   <time name="orth">    0.00    0.00</time>
   <time name="total">    0.39    0.39</time>
   <energy>
    <i name="e_fr_energy">    -16.40368680 </i>
    <i name="e_wo_entrp">    -16.40368680 </i>
    <i name="e_0_energy">    -16.40368680 </i>
   </energy>
  </scstep>
  <scstep>
   <time name="diag">    0.01    0.01</time>
   <time name="diis">    0.02    0.02</time>
   <time name="orth">    0.00    0.00</time>
   <time name="total">    0.37    0.37</time>
   <energy>
    <i name="alphaZ">     40.44071196 </i>
    <i name="ewald">   -767.75865402 </i>
    <i name="hartreedc">   -226.68151198 </i>
    <i name="XCdc">     71.99907999 </i>
    <i name="pawpsdc">   1187.32046888 </i>
    <i name="pawaedc">  -1192.78488405 </i>
    <i name="eentropy">     -0.00000000 </i>
    <i name="bandstr">    -43.64898475 </i>
    <i name="atom">    914.71008676 </i>
    <i name="e_fr_energy">    -16.40368721 </i>
    <i name="e_wo_entrp">    -16.40368721 </i>
    <i name="e_0_energy">    -16.40368721 </i>
   </energy>
  </scstep>
  <structure>
   <crystal>
    <varray name="basis" >
     <v>       2.80969200       0.00000000       0.00000000 </v>
     <v>       0.00000000       2.80969200       0.00000000 </v>
     <v>       0.00000000       0.00000000       2.80969200 </v>
    </varray>
    <i name="volume">     22.18074580 </i>
    <varray name="rec_basis" >
     <v>       0.35591090       0.00000000       0.00000000 </v>
     <v>       0.00000000       0.35591090       0.00000000 </v>
     <v>       0.00000000       0.00000000       0.35591090 </v>
    </varray>
   </crystal>
   <varray name="positions" >
    <v>       0.75000000       0.75000000       0.25000000 </v>
    <v>       0.25000000       0.25000000       0.25000000 </v>
    <v>       0.25000000       0.75000000       0.75000000 </v>
    <v>       0.75000000       0.25000000       0.75000000 </v>
    <v>       0.00000000       0.00000000       0.00000000 </v>
    <v>       0.50000000       0.50000000       0.50000000 </v>
   </varray>
  </structure>
  <varray name="forces" >
   <v>      -0.00002695      -0.00001932       0.00001651 </v>
   <v>      -0.00000636      -0.00000232       0.00002711 </v>
   <v>      -0.00002123       0.00002188       0.00001162 </v>
   <v>      -0.00001581       0.00001808       0.00001490 </v>
   <v>      -0.00023527      -0.00023385       0.00014115 </v>
   <v>       0.00030562       0.00021553      -0.00021130 </v>
  </varray>
  <varray name="stress" >
   <v>    1222.33047267      -0.00586061       0.00755224 </v>
   <v>      -0.00586054    1222.34719766       0.01361537 </v>
   <v>       0.00755237       0.01361531    1222.34850309 </v>
  </varray>
  <energy>
   <i name="e_fr_energy">    -16.40368721 </i>
   <i name="e_wo_entrp">    -16.40368721 </i>
   <i name="e_0_energy">    -16.40368721 </i>
  </energy>
  <time name="totalsc">    4.56    4.56</time>
  <eigenvalues>
   <array>
    <dimension dim="1">band</dimension>
    <dimension dim="2">kpoint</dimension>
    <dimension dim="3">spin</dimension>
    <field>eigene</field>
    <field>occ</field>
    <set>
     <set comment="spin 1">
      <set comment="kpoint 1">
       <r>  -17.8960    1.0000 </r>
       <r>  -11.1103    1.0000 </r>
       <r>   -2.3711    1.0000 </r>
       <r>   -2.3711    1.0000 </r>
       <r>   -2.3711    1.0000 </r>
       <r>    4.7650    1.0000 </r>
       <r>    4.7650    1.0000 </r>
       <r>    4.7651    1.0000 </r>
       <r>   11.8480    0.0000 </r>
       <r>   14.5278    0.0000 </r>
       <r>   14.5278    0.0000 </r>
       <r>   19.4144    0.0000 </r>
      </set>
     </set>
    </set>
   </array>
  </eigenvalues>
  <separator name="orbital magnetization" >
   <v name="MAGDIPOLOUT">      0.00000000      0.00000000      0.00000000</v>
  </separator>
  <dos>
   <i name="efermi">      5.03432661 </i>
   <total>
    <array>
     <dimension dim="1">gridpoints</dimension>
     <dimension dim="2">spin</dimension>
     <field>energy</field>
     <field>total</field>
     <field>integrated</field>
     <set>
      <set comment="spin 1">
       <r>   -19.7615     0.0000     0.0000 </r>
       <r>   -19.6247     0.0000     0.0000 </r>
       <r>   -19.4879     0.0000     0.0000 </r>
       <r>   -19.3511     0.0000     0.0000 </r>
       <r>   -19.2143     0.0000     0.0000 </r>
       <r>   -19.0775     0.0000     0.0000 </r>
       <r>   -18.9407     0.0000     0.0000 </r>
       <r>   -18.8039     0.0000     0.0000 </r>
       <r>   -18.6671     0.0000     0.0000 </r>
       <r>   -18.5303     0.0000     0.0000 </r>
       <r>   -18.3935     0.0000     0.0000 </r>
       <r>   -18.2567     0.0000     0.0000 </r>
       <r>   -18.1199     0.0000     0.0000 </r>
       <r>   -17.9830     0.1009     0.0138 </r>
       <r>   -17.8462    13.3533     1.8406 </r>
       <r>   -17.7094     1.1652     2.0000 </r>
       <r>   -17.5726     0.0000     2.0000 </r>
       <r>   -17.4358     0.0000     2.0000 </r>
       <r>   -17.2990     0.0000     2.0000 </r>
       <r>   -17.1622     0.0000     2.0000 </r>
       <r>   -17.0254     0.0000     2.0000 </r>
       <r>   -16.8886     0.0000     2.0000 </r>
       <r>   -16.7518     0.0000     2.0000 </r>
       <r>   -16.6150     0.0000     2.0000 </r>
       <r>   -16.4782     0.0000     2.0000 </r>
       <r>   -16.3414     0.0000     2.0000 </r>
       <r>   -16.2046     0.0000     2.0000 </r>
       <r>   -16.0678     0.0000     2.0000 </r>
       <r>   -15.9310     0.0000     2.0000 </r>
       <r>   -15.7942     0.0000     2.0000 </r>
       <r>   -15.6574     0.0000     2.0000 </r>
       <r>   -15.5206     0.0000     2.0000 </r>
       <r>   -15.3838     0.0000     2.0000 </r>
       <r>   -15.2470     0.0000     2.0000 </r>
       <r>   -15.1101     0.0000     2.0000 </r>
       <r>   -14.9733     0.0000     2.0000 </r>
       <r>   -14.8365     0.0000     2.0000 </r>
       <r>   -14.6997     0.0000     2.0000 </r>
       <r>   -14.5629     0.0000     2.0000 </r>
       <r>   -14.4261     0.0000     2.0000 </r>
       <r>   -14.2893     0.0000     2.0000 </r>
       <r>   -14.1525     0.0000     2.0000 </r>
       <r>   -14.0157     0.0000     2.0000 </r>
       <r>   -13.8789     0.0000     2.0000 </r>
       <r>   -13.7421     0.0000     2.0000 </r>
       <r>   -13.6053     0.0000     2.0000 </r>
       <r>   -13.4685     0.0000     2.0000 </r>
       <r>   -13.3317     0.0000     2.0000 </r>
       <r>   -13.1949     0.0000     2.0000 </r>
       <r>   -13.0581     0.0000     2.0000 </r>
       <r>   -12.9213     0.0000     2.0000 </r>
       <r>   -12.7845     0.0000     2.0000 </r>
       <r>   -12.6477     0.0000     2.0000 </r>
       <r>   -12.5109     0.0000     2.0000 </r>
       <r>   -12.3741     0.0000     2.0000 </r>
       <r>   -12.2373     0.0000     2.0000 </r>
       <r>   -12.1004     0.0000     2.0000 </r>
       <r>   -11.9636     0.0000     2.0000 </r>
       <r>   -11.8268     0.0000     2.0000 </r>
       <r>   -11.6900     0.0000     2.0000 </r>
       <r>   -11.5532     0.0000     2.0000 </r>
       <r>   -11.4164     0.0000     2.0000 </r>
       <r>   -11.2796     0.0000     2.0000 </r>
       <r>   -11.1428     2.6118     2.3573 </r>
       <r>   -11.0060    11.9843     3.9968 </r>
       <r>   -10.8692     0.0233     4.0000 </r>
       <r>   -10.7324     0.0000     4.0000 </r>
       <r>   -10.5956     0.0000     4.0000 </r>
       <r>   -10.4588     0.0000     4.0000 </r>
       <r>   -10.3220     0.0000     4.0000 </r>
       <r>   -10.1852     0.0000     4.0000 </r>
       <r>   -10.0484     0.0000     4.0000 </r>
       <r>    -9.9116     0.0000     4.0000 </r>
       <r>    -9.7748     0.0000     4.0000 </r>
       <r>    -9.6380     0.0000     4.0000 </r>
       <r>    -9.5012     0.0000     4.0000 </r>
       <r>    -9.3644     0.0000     4.0000 </r>
       <r>    -9.2276     0.0000     4.0000 </r>
       <r>    -9.0907     0.0000     4.0000 </r>
       <r>    -8.9539     0.0000     4.0000 </r>
       <r>    -8.8171     0.0000     4.0000 </r>
       <r>    -8.6803     0.0000     4.0000 </r>
       <r>    -8.5435     0.0000     4.0000 </r>
       <r>    -8.4067     0.0000     4.0000 </r>
       <r>    -8.2699     0.0000     4.0000 </r>
       <r>    -8.1331     0.0000     4.0000 </r>
       <r>    -7.9963     0.0000     4.0000 </r>
       <r>    -7.8595     0.0000     4.0000 </r>
       <r>    -7.7227     0.0000     4.0000 </r>
       <r>    -7.5859     0.0000     4.0000 </r>
       <r>    -7.4491     0.0000     4.0000 </r>
       <r>    -7.3123     0.0000     4.0000 </r>
       <r>    -7.1755     0.0000     4.0000 </r>
       <r>    -7.0387     0.0000     4.0000 </r>
       <r>    -6.9019     0.0000     4.0000 </r>
       <r>    -6.7651     0.0000     4.0000 </r>
       <r>    -6.6283     0.0000     4.0000 </r>
       <r>    -6.4915     0.0000     4.0000 </r>
       <r>    -6.3547     0.0000     4.0000 </r>
       <r>    -6.2179     0.0000     4.0000 </r>
       <r>    -6.0810     0.0000     4.0000 </r>
       <r>    -5.9442     0.0000     4.0000 </r>
       <r>    -5.8074     0.0000     4.0000 </r>
       <r>    -5.6706     0.0000     4.0000 </r>
       <r>    -5.5338     0.0000     4.0000 </r>
       <r>    -5.3970     0.0000     4.0000 </r>
       <r>    -5.2602     0.0000     4.0000 </r>
       <r>    -5.1234     0.0000     4.0000 </r>
       <r>    -4.9866     0.0000     4.0000 </r>
       <r>    -4.8498     0.0000     4.0000 </r>
       <r>    -4.7130     0.0000     4.0000 </r>
       <r>    -4.5762     0.0000     4.0000 </r>
       <r>    -4.4394     0.0000     4.0000 </r>
       <r>    -4.3026     0.0000     4.0000 </r>
       <r>    -4.1658     0.0000     4.0000 </r>
       <r>    -4.0290     0.0000     4.0000 </r>
       <r>    -3.8922     0.0000     4.0000 </r>
       <r>    -3.7554     0.0000     4.0000 </r>
       <r>    -3.6186     0.0000     4.0000 </r>
       <r>    -3.4818     0.0000     4.0000 </r>
       <r>    -3.3450     0.0000     4.0000 </r>
       <r>    -3.2082     0.0000     4.0000 </r>
       <r>    -3.0713     0.0000     4.0000 </r>
       <r>    -2.9345     0.0000     4.0000 </r>
       <r>    -2.7977     0.0000     4.0000 </r>
       <r>    -2.6609     0.0000     4.0000 </r>
       <r>    -2.5241     0.0003     4.0000 </r>
       <r>    -2.3873    14.1802     5.9400 </r>
       <r>    -2.2505    29.6635     9.9981 </r>
       <r>    -2.1137     0.0142    10.0000 </r>
       <r>    -1.9769     0.0000    10.0000 </r>
       <r>    -1.8401     0.0000    10.0000 </r>
       <r>    -1.7033     0.0000    10.0000 </r>
       <r>    -1.5665     0.0000    10.0000 </r>
       <r>    -1.4297     0.0000    10.0000 </r>
       <r>    -1.2929     0.0000    10.0000 </r>
       <r>    -1.1561     0.0000    10.0000 </r>
       <r>    -1.0193     0.0000    10.0000 </r>
       <r>    -0.8825     0.0000    10.0000 </r>
       <r>    -0.7457     0.0000    10.0000 </r>
       <r>    -0.6089     0.0000    10.0000 </r>
       <r>    -0.4721     0.0000    10.0000 </r>
       <r>    -0.3353     0.0000    10.0000 </r>
       <r>    -0.1984     0.0000    10.0000 </r>
       <r>    -0.0616     0.0000    10.0000 </r>
       <r>     0.0752     0.0000    10.0000 </r>
       <r>     0.2120     0.0000    10.0000 </r>
       <r>     0.3488     0.0000    10.0000 </r>
       <r>     0.4856     0.0000    10.0000 </r>
       <r>     0.6224     0.0000    10.0000 </r>
       <r>     0.7592     0.0000    10.0000 </r>
       <r>     0.8960     0.0000    10.0000 </r>
       <r>     1.0328     0.0000    10.0000 </r>
       <r>     1.1696     0.0000    10.0000 </r>
       <r>     1.3064     0.0000    10.0000 </r>
       <r>     1.4432     0.0000    10.0000 </r>
       <r>     1.5800     0.0000    10.0000 </r>
       <r>     1.7168     0.0000    10.0000 </r>
       <r>     1.8536     0.0000    10.0000 </r>
       <r>     1.9904     0.0000    10.0000 </r>
       <r>     2.1272     0.0000    10.0000 </r>
       <r>     2.2640     0.0000    10.0000 </r>
       <r>     2.4008     0.0000    10.0000 </r>
       <r>     2.5376     0.0000    10.0000 </r>
       <r>     2.6744     0.0000    10.0000 </r>
       <r>     2.8113     0.0000    10.0000 </r>
       <r>     2.9481     0.0000    10.0000 </r>
       <r>     3.0849     0.0000    10.0000 </r>
       <r>     3.2217     0.0000    10.0000 </r>
       <r>     3.3585     0.0000    10.0000 </r>
       <r>     3.4953     0.0000    10.0000 </r>
       <r>     3.6321     0.0000    10.0000 </r>
       <r>     3.7689     0.0000    10.0000 </r>
       <r>     3.9057     0.0000    10.0000 </r>
       <r>     4.0425     0.0000    10.0000 </r>
       <r>     4.1793     0.0000    10.0000 </r>
       <r>     4.3161     0.0000    10.0000 </r>
       <r>     4.4529     0.0000    10.0000 </r>
       <r>     4.5897     0.0000    10.0000 </r>
       <r>     4.7265     6.0505    10.8277 </r>
       <r>     4.8633    37.6884    15.9837 </r>
       <r>     5.0001     0.1193    16.0000 </r>
       <r>     5.1369     0.0000    16.0000 </r>
       <r>     5.2737     0.0000    16.0000 </r>
       <r>     5.4105     0.0000    16.0000 </r>
       <r>     5.5473     0.0000    16.0000 </r>
       <r>     5.6841     0.0000    16.0000 </r>
       <r>     5.8210     0.0000    16.0000 </r>
       <r>     5.9578     0.0000    16.0000 </r>
       <r>     6.0946     0.0000    16.0000 </r>
       <r>     6.2314     0.0000    16.0000 </r>
       <r>     6.3682     0.0000    16.0000 </r>
       <r>     6.5050     0.0000    16.0000 </r>
       <r>     6.6418     0.0000    16.0000 </r>
       <r>     6.7786     0.0000    16.0000 </r>
       <r>     6.9154     0.0000    16.0000 </r>
       <r>     7.0522     0.0000    16.0000 </r>
       <r>     7.1890     0.0000    16.0000 </r>
       <r>     7.3258     0.0000    16.0000 </r>
       <r>     7.4626     0.0000    16.0000 </r>
       <r>     7.5994     0.0000    16.0000 </r>
       <r>     7.7362     0.0000    16.0000 </r>
       <r>     7.8730     0.0000    16.0000 </r>
       <r>     8.0098     0.0000    16.0000 </r>
       <r>     8.1466     0.0000    16.0000 </r>
       <r>     8.2834     0.0000    16.0000 </r>
       <r>     8.4202     0.0000    16.0000 </r>
       <r>     8.5570     0.0000    16.0000 </r>
       <r>     8.6938     0.0000    16.0000 </r>
       <r>     8.8307     0.0000    16.0000 </r>
       <r>     8.9675     0.0000    16.0000 </r>
       <r>     9.1043     0.0000    16.0000 </r>
       <r>     9.2411     0.0000    16.0000 </r>
       <r>     9.3779     0.0000    16.0000 </r>
       <r>     9.5147     0.0000    16.0000 </r>
       <r>     9.6515     0.0000    16.0000 </r>
       <r>     9.7883     0.0000    16.0000 </r>
       <r>     9.9251     0.0000    16.0000 </r>
       <r>    10.0619     0.0000    16.0000 </r>
       <r>    10.1987     0.0000    16.0000 </r>
       <r>    10.3355     0.0000    16.0000 </r>
       <r>    10.4723     0.0000    16.0000 </r>
       <r>    10.6091     0.0000    16.0000 </r>
       <r>    10.7459     0.0000    16.0000 </r>
       <r>    10.8827     0.0000    16.0000 </r>
       <r>    11.0195     0.0000    16.0000 </r>
       <r>    11.1563     0.0000    16.0000 </r>
       <r>    11.2931     0.0000    16.0000 </r>
       <r>    11.4299     0.0000    16.0000 </r>
       <r>    11.5667     0.0000    16.0000 </r>
       <r>    11.7036     0.0003    16.0000 </r>
       <r>    11.8404     6.0575    16.8287 </r>
       <r>    11.9772     8.5596    17.9997 </r>
       <r>    12.1140     0.0019    18.0000 </r>
       <r>    12.2508     0.0000    18.0000 </r>
       <r>    12.3876     0.0000    18.0000 </r>
       <r>    12.5244     0.0000    18.0000 </r>
       <r>    12.6612     0.0000    18.0000 </r>
       <r>    12.7980     0.0000    18.0000 </r>
       <r>    12.9348     0.0000    18.0000 </r>
       <r>    13.0716     0.0000    18.0000 </r>
       <r>    13.2084     0.0000    18.0000 </r>
       <r>    13.3452     0.0000    18.0000 </r>
       <r>    13.4820     0.0000    18.0000 </r>
       <r>    13.6188     0.0000    18.0000 </r>
       <r>    13.7556     0.0000    18.0000 </r>
       <r>    13.8924     0.0000    18.0000 </r>
       <r>    14.0292     0.0000    18.0000 </r>
       <r>    14.1660     0.0000    18.0000 </r>
       <r>    14.3028     0.0000    18.0000 </r>
       <r>    14.4396     0.1847    18.0253 </r>
       <r>    14.5764    26.5838    21.6621 </r>
       <r>    14.7133     2.4703    22.0000 </r>
       <r>    14.8501     0.0000    22.0000 </r>
       <r>    14.9869     0.0000    22.0000 </r>
       <r>    15.1237     0.0000    22.0000 </r>
       <r>    15.2605     0.0000    22.0000 </r>
       <r>    15.3973     0.0000    22.0000 </r>
       <r>    15.5341     0.0000    22.0000 </r>
       <r>    15.6709     0.0000    22.0000 </r>
       <r>    15.8077     0.0000    22.0000 </r>
       <r>    15.9445     0.0000    22.0000 </r>
       <r>    16.0813     0.0000    22.0000 </r>
       <r>    16.2181     0.0000    22.0000 </r>
       <r>    16.3549     0.0000    22.0000 </r>
       <r>    16.4917     0.0000    22.0000 </r>
       <r>    16.6285     0.0000    22.0000 </r>
       <r>    16.7653     0.0000    22.0000 </r>
       <r>    16.9021     0.0000    22.0000 </r>
       <r>    17.0389     0.0000    22.0000 </r>
       <r>    17.1757     0.0000    22.0000 </r>
       <r>    17.3125     0.0000    22.0000 </r>
       <r>    17.4493     0.0000    22.0000 </r>
       <r>    17.5861     0.0000    22.0000 </r>
       <r>    17.7230     0.0000    22.0000 </r>
       <r>    17.8598     0.0000    22.0000 </r>
       <r>    17.9966     0.0000    22.0000 </r>
       <r>    18.1334     0.0000    22.0000 </r>
       <r>    18.2702     0.0000    22.0000 </r>
       <r>    18.4070     0.0000    22.0000 </r>
       <r>    18.5438     0.0000    22.0000 </r>
       <r>    18.6806     0.0000    22.0000 </r>
       <r>    18.8174     0.0000    22.0000 </r>
       <r>    18.9542     0.0000    22.0000 </r>
       <r>    19.0910     0.0000    22.0000 </r>
       <r>    19.2278     0.0000    22.0000 </r>
       <r>    19.3646     1.1652    22.1594 </r>
       <r>    19.5014    13.3533    23.9862 </r>
       <r>    19.6382     0.1009    24.0000 </r>
       <r>    19.7750     0.0000    24.0000 </r>
       <r>    19.9118     0.0000    24.0000 </r>
       <r>    20.0486     0.0000    24.0000 </r>
       <r>    20.1854     0.0000    24.0000 </r>
       <r>    20.3222     0.0000    24.0000 </r>
       <r>    20.4590     0.0000    24.0000 </r>
       <r>    20.5958     0.0000    24.0000 </r>
       <r>    20.7327     0.0000    24.0000 </r>
       <r>    20.8695     0.0000    24.0000 </r>
       <r>    21.0063     0.0000    24.0000 </r>
       <r>    21.1431     0.0000    24.0000 </r>
       <r>    21.2799     0.0000    24.0000 </r>
      </set>
     </set>
    </array>
   </total>
  </dos>
 </calculation>
 <structure name="finalpos" >
  <crystal>
   <varray name="basis" >
    <v>       2.80969200       0.00000000       0.00000000 </v>
    <v>       0.00000000       2.80969200       0.00000000 </v>
    <v>       0.00000000       0.00000000       2.80969200 </v>
   </varray>
   <i name="volume">     22.18074580 </i>
   <varray name="rec_basis" >
    <v>       0.35591090       0.00000000       0.00000000 </v>
    <v>       0.00000000       0.35591090       0.00000000 </v>
    <v>       0.00000000       0.00000000       0.35591090 </v>
   </varray>
  </crystal>
  <varray name="positions" >
   <v>       0.75000000       0.75000000       0.25000000 </v>
   <v>       0.25000000       0.25000000       0.25000000 </v>
   <v>       0.25000000       0.75000000       0.75000000 </v>
   <v>       0.75000000       0.25000000       0.75000000 </v>
   <v>       0.00000000       0.00000000       0.00000000 </v>
   <v>       0.50000000       0.50000000       0.50000000 </v>
  </varray>
 </structure>
</modeling>
