   6   6   0   0
  0.3696791E+01  0.2809692E-09  0.2809692E-09  0.2809692E-09  0.5000000E-15
  1.000000000000000E-004
  CAR 
 unknown system                          
     22.17754896    -20.12201140  301      4.85235403      1.00000000
    -20.122  0.0000E+00  0.0000E+00
    -19.981  0.0000E+00  0.0000E+00
    -19.840  0.0000E+00  0.0000E+00
    -19.699  0.0000E+00  0.0000E+00
    -19.558  0.0000E+00  0.0000E+00
    -19.417  0.0000E+00  0.0000E+00
    -19.276  0.0000E+00  0.0000E+00
    -19.135  0.0000E+00  0.0000E+00
    -18.994  0.0000E+00  0.0000E+00
    -18.853  0.0000E+00  0.0000E+00
    -18.712  0.0000E+00  0.0000E+00
    -18.571  0.0000E+00  0.0000E+00
    -18.430  0.4794E-09  0.6760E-10
    -18.289  0.7911E-01  0.1115E-01
    -18.148  0.1306E+02  0.1853E+01
    -18.007  0.1043E+01  0.2000E+01
    -17.866  0.3816E-06  0.2000E+01
    -17.725  0.0000E+00  0.2000E+01
    -17.584  0.0000E+00  0.2000E+01
    -17.443  0.0000E+00  0.2000E+01
    -17.302  0.0000E+00  0.2000E+01
    -17.161  0.0000E+00  0.2000E+01
    -17.020  0.0000E+00  0.2000E+01
    -16.879  0.0000E+00  0.2000E+01
    -16.738  0.0000E+00  0.2000E+01
    -16.597  0.0000E+00  0.2000E+01
    -16.456  0.0000E+00  0.2000E+01
    -16.315  0.0000E+00  0.2000E+01
    -16.174  0.0000E+00  0.2000E+01
    -16.033  0.0000E+00  0.2000E+01
    -15.892  0.0000E+00  0.2000E+01
    -15.751  0.0000E+00  0.2000E+01
    -15.610  0.0000E+00  0.2000E+01
    -15.469  0.0000E+00  0.2000E+01
    -15.328  0.0000E+00  0.2000E+01
    -15.187  0.0000E+00  0.2000E+01
    -15.046  0.0000E+00  0.2000E+01
    -14.905  0.0000E+00  0.2000E+01
    -14.764  0.0000E+00  0.2000E+01
    -14.623  0.0000E+00  0.2000E+01
    -14.482  0.0000E+00  0.2000E+01
    -14.341  0.0000E+00  0.2000E+01
    -14.200  0.0000E+00  0.2000E+01
    -14.059  0.0000E+00  0.2000E+01
    -13.918  0.0000E+00  0.2000E+01
    -13.777  0.0000E+00  0.2000E+01
    -13.636  0.0000E+00  0.2000E+01
    -13.495  0.0000E+00  0.2000E+01
    -13.354  0.0000E+00  0.2000E+01
    -13.213  0.0000E+00  0.2000E+01
    -13.072  0.0000E+00  0.2000E+01
    -12.931  0.0000E+00  0.2000E+01
    -12.790  0.0000E+00  0.2000E+01
    -12.649  0.0000E+00  0.2000E+01
    -12.508  0.0000E+00  0.2000E+01
    -12.367  0.0000E+00  0.2000E+01
    -12.226  0.1572E-08  0.2000E+01
    -12.085  0.1305E+00  0.2018E+01
    -11.944  0.1332E+02  0.3897E+01
    -11.803  0.7304E+00  0.4000E+01
    -11.662  0.1366E-06  0.4000E+01
    -11.521  0.0000E+00  0.4000E+01
    -11.380  0.0000E+00  0.4000E+01
    -11.239  0.0000E+00  0.4000E+01
    -11.098  0.0000E+00  0.4000E+01
    -10.957  0.0000E+00  0.4000E+01
    -10.816  0.0000E+00  0.4000E+01
    -10.675  0.0000E+00  0.4000E+01
    -10.534  0.0000E+00  0.4000E+01
    -10.393  0.0000E+00  0.4000E+01
    -10.252  0.0000E+00  0.4000E+01
    -10.111  0.0000E+00  0.4000E+01
     -9.970  0.0000E+00  0.4000E+01
     -9.829  0.0000E+00  0.4000E+01
     -9.688  0.0000E+00  0.4000E+01
     -9.547  0.0000E+00  0.4000E+01
     -9.406  0.0000E+00  0.4000E+01
     -9.265  0.0000E+00  0.4000E+01
     -9.124  0.0000E+00  0.4000E+01
     -8.983  0.0000E+00  0.4000E+01
     -8.842  0.0000E+00  0.4000E+01
     -8.701  0.0000E+00  0.4000E+01
     -8.560  0.0000E+00  0.4000E+01
     -8.419  0.0000E+00  0.4000E+01
     -8.278  0.0000E+00  0.4000E+01
     -8.137  0.0000E+00  0.4000E+01
     -7.996  0.0000E+00  0.4000E+01
     -7.855  0.0000E+00  0.4000E+01
     -7.714  0.0000E+00  0.4000E+01
     -7.573  0.0000E+00  0.4000E+01
     -7.432  0.0000E+00  0.4000E+01
     -7.291  0.0000E+00  0.4000E+01
     -7.150  0.0000E+00  0.4000E+01
     -7.009  0.0000E+00  0.4000E+01
     -6.868  0.0000E+00  0.4000E+01
     -6.727  0.0000E+00  0.4000E+01
     -6.586  0.0000E+00  0.4000E+01
     -6.445  0.0000E+00  0.4000E+01
     -6.304  0.0000E+00  0.4000E+01
     -6.163  0.0000E+00  0.4000E+01
     -6.022  0.0000E+00  0.4000E+01
     -5.881  0.0000E+00  0.4000E+01
     -5.740  0.0000E+00  0.4000E+01
     -5.599  0.0000E+00  0.4000E+01
     -5.458  0.0000E+00  0.4000E+01
     -5.317  0.0000E+00  0.4000E+01
     -5.176  0.0000E+00  0.4000E+01
     -5.035  0.0000E+00  0.4000E+01
     -4.894  0.0000E+00  0.4000E+01
     -4.753  0.0000E+00  0.4000E+01
     -4.612  0.0000E+00  0.4000E+01
     -4.471  0.0000E+00  0.4000E+01
     -4.330  0.0000E+00  0.4000E+01
     -4.189  0.0000E+00  0.4000E+01
     -4.048  0.0000E+00  0.4000E+01
     -3.907  0.0000E+00  0.4000E+01
     -3.766  0.0000E+00  0.4000E+01
     -3.625  0.0000E+00  0.4000E+01
     -3.484  0.0000E+00  0.4000E+01
     -3.343  0.0000E+00  0.4000E+01
     -3.202  0.0000E+00  0.4000E+01
     -3.061  0.1864E-11  0.4000E+01
     -2.920  0.8991E-02  0.4001E+01
     -2.779  0.2031E+02  0.6864E+01
     -2.638  0.8053E+01  0.8000E+01
     -2.497  0.7277E-04  0.8000E+01
     -2.356  0.4331E-13  0.8000E+01
     -2.215  0.9727E-03  0.8000E+01
     -2.074  0.8075E+01  0.9139E+01
     -1.933  0.6108E+01  0.1000E+02
     -1.792  0.2229E-03  0.1000E+02
     -1.651  0.0000E+00  0.1000E+02
     -1.510  0.0000E+00  0.1000E+02
     -1.369  0.0000E+00  0.1000E+02
     -1.228  0.0000E+00  0.1000E+02
     -1.087  0.0000E+00  0.1000E+02
     -0.946  0.0000E+00  0.1000E+02
     -0.805  0.0000E+00  0.1000E+02
     -0.664  0.0000E+00  0.1000E+02
     -0.523  0.0000E+00  0.1000E+02
     -0.382  0.0000E+00  0.1000E+02
     -0.241  0.0000E+00  0.1000E+02
     -0.100  0.0000E+00  0.1000E+02
      0.041  0.0000E+00  0.1000E+02
      0.182  0.0000E+00  0.1000E+02
      0.323  0.0000E+00  0.1000E+02
      0.464  0.0000E+00  0.1000E+02
      0.605  0.0000E+00  0.1000E+02
      0.746  0.0000E+00  0.1000E+02
      0.887  0.0000E+00  0.1000E+02
      1.028  0.0000E+00  0.1000E+02
      1.169  0.0000E+00  0.1000E+02
      1.310  0.0000E+00  0.1000E+02
      1.451  0.0000E+00  0.1000E+02
      1.592  0.0000E+00  0.1000E+02
      1.733  0.0000E+00  0.1000E+02
      1.874  0.0000E+00  0.1000E+02
      2.015  0.0000E+00  0.1000E+02
      2.156  0.0000E+00  0.1000E+02
      2.297  0.0000E+00  0.1000E+02
      2.438  0.0000E+00  0.1000E+02
      2.579  0.0000E+00  0.1000E+02
      2.720  0.0000E+00  0.1000E+02
      2.861  0.0000E+00  0.1000E+02
      3.002  0.0000E+00  0.1000E+02
      3.143  0.0000E+00  0.1000E+02
      3.284  0.0000E+00  0.1000E+02
      3.425  0.0000E+00  0.1000E+02
      3.566  0.0000E+00  0.1000E+02
      3.707  0.0000E+00  0.1000E+02
      3.848  0.0000E+00  0.1000E+02
      3.989  0.0000E+00  0.1000E+02
      4.130  0.3472E-12  0.1000E+02
      4.271  0.2769E-02  0.1000E+02
      4.412  0.9512E+01  0.1134E+02
      4.553  0.2199E+02  0.1444E+02
      4.694  0.1105E+02  0.1600E+02
      4.835  0.2792E-03  0.1600E+02
      4.976  0.0000E+00  0.1600E+02
      5.117  0.0000E+00  0.1600E+02
      5.258  0.0000E+00  0.1600E+02
      5.399  0.0000E+00  0.1600E+02
      5.540  0.0000E+00  0.1600E+02
      5.681  0.0000E+00  0.1600E+02
      5.822  0.0000E+00  0.1600E+02
      5.963  0.0000E+00  0.1600E+02
      6.104  0.0000E+00  0.1600E+02
      6.245  0.0000E+00  0.1600E+02
      6.386  0.0000E+00  0.1600E+02
      6.527  0.0000E+00  0.1600E+02
      6.668  0.0000E+00  0.1600E+02
      6.809  0.0000E+00  0.1600E+02
      6.950  0.0000E+00  0.1600E+02
      7.091  0.0000E+00  0.1600E+02
      7.232  0.0000E+00  0.1600E+02
      7.373  0.0000E+00  0.1600E+02
      7.514  0.0000E+00  0.1600E+02
      7.655  0.0000E+00  0.1600E+02
      7.796  0.0000E+00  0.1600E+02
      7.937  0.0000E+00  0.1600E+02
      8.078  0.0000E+00  0.1600E+02
      8.219  0.0000E+00  0.1600E+02
      8.360  0.0000E+00  0.1600E+02
      8.501  0.0000E+00  0.1600E+02
      8.642  0.0000E+00  0.1600E+02
      8.783  0.0000E+00  0.1600E+02
      8.924  0.0000E+00  0.1600E+02
      9.065  0.0000E+00  0.1600E+02
      9.206  0.0000E+00  0.1600E+02
      9.347  0.0000E+00  0.1600E+02
      9.488  0.0000E+00  0.1600E+02
      9.629  0.0000E+00  0.1600E+02
      9.770  0.0000E+00  0.1600E+02
      9.911  0.0000E+00  0.1600E+02
     10.052  0.0000E+00  0.1600E+02
     10.193  0.0000E+00  0.1600E+02
     10.334  0.0000E+00  0.1600E+02
     10.475  0.0000E+00  0.1600E+02
     10.616  0.0000E+00  0.1600E+02
     10.757  0.0000E+00  0.1600E+02
     10.898  0.0000E+00  0.1600E+02
     11.039  0.0000E+00  0.1600E+02
     11.180  0.0000E+00  0.1600E+02
     11.321  0.0000E+00  0.1600E+02
     11.462  0.0000E+00  0.1600E+02
     11.603  0.0000E+00  0.1600E+02
     11.744  0.0000E+00  0.1600E+02
     11.885  0.0000E+00  0.1600E+02
     12.026  0.0000E+00  0.1600E+02
     12.167  0.0000E+00  0.1600E+02
     12.308  0.3437E-07  0.1600E+02
     12.449  0.4417E+00  0.1606E+02
     12.590  0.1350E+02  0.1797E+02
     12.731  0.2390E+00  0.1800E+02
     12.872  0.6988E-08  0.1800E+02
     13.013  0.0000E+00  0.1800E+02
     13.154  0.0000E+00  0.1800E+02
     13.295  0.0000E+00  0.1800E+02
     13.436  0.0000E+00  0.1800E+02
     13.577  0.0000E+00  0.1800E+02
     13.718  0.0000E+00  0.1800E+02
     13.859  0.0000E+00  0.1800E+02
     14.000  0.0000E+00  0.1800E+02
     14.141  0.0000E+00  0.1800E+02
     14.282  0.0000E+00  0.1800E+02
     14.423  0.0000E+00  0.1800E+02
     14.564  0.0000E+00  0.1800E+02
     14.705  0.0000E+00  0.1800E+02
     14.846  0.1969E-13  0.1800E+02
     14.987  0.7394E-03  0.1800E+02
     15.128  0.1266E+02  0.1979E+02
     15.269  0.1570E+02  0.2200E+02
     15.410  0.2269E-02  0.2200E+02
     15.551  0.0000E+00  0.2200E+02
     15.692  0.0000E+00  0.2200E+02
     15.833  0.0000E+00  0.2200E+02
     15.974  0.0000E+00  0.2200E+02
     16.115  0.0000E+00  0.2200E+02
     16.256  0.0000E+00  0.2200E+02
     16.397  0.0000E+00  0.2200E+02
     16.538  0.0000E+00  0.2200E+02
     16.679  0.0000E+00  0.2200E+02
     16.820  0.0000E+00  0.2200E+02
     16.961  0.0000E+00  0.2200E+02
     17.102  0.0000E+00  0.2200E+02
     17.243  0.0000E+00  0.2200E+02
     17.384  0.0000E+00  0.2200E+02
     17.525  0.0000E+00  0.2200E+02
     17.666  0.0000E+00  0.2200E+02
     17.807  0.0000E+00  0.2200E+02
     17.948  0.0000E+00  0.2200E+02
     18.089  0.0000E+00  0.2200E+02
     18.230  0.0000E+00  0.2200E+02
     18.371  0.0000E+00  0.2200E+02
     18.512  0.0000E+00  0.2200E+02
     18.653  0.0000E+00  0.2200E+02
     18.794  0.0000E+00  0.2200E+02
     18.935  0.0000E+00  0.2200E+02
     19.076  0.0000E+00  0.2200E+02
     19.217  0.0000E+00  0.2200E+02
     19.358  0.0000E+00  0.2200E+02
     19.499  0.0000E+00  0.2200E+02
     19.640  0.0000E+00  0.2200E+02
     19.781  0.0000E+00  0.2200E+02
     19.922  0.0000E+00  0.2200E+02
     20.063  0.3816E-06  0.2200E+02
     20.204  0.1043E+01  0.2215E+02
     20.345  0.1306E+02  0.2399E+02
     20.486  0.7911E-01  0.2400E+02
     20.627  0.4794E-09  0.2400E+02
     20.768  0.0000E+00  0.2400E+02
     20.909  0.0000E+00  0.2400E+02
     21.050  0.0000E+00  0.2400E+02
     21.191  0.0000E+00  0.2400E+02
     21.332  0.0000E+00  0.2400E+02
     21.473  0.0000E+00  0.2400E+02
     21.614  0.0000E+00  0.2400E+02
     21.755  0.0000E+00  0.2400E+02
     21.896  0.0000E+00  0.2400E+02
     22.037  0.0000E+00  0.2400E+02
     22.178  0.0000E+00  0.2400E+02
