    6    6    1    1
  0.3696791E+01  0.2809692E-09  0.2809692E-09  0.2809692E-09  0.5000000E-15
  1.000000000000000E-004
  CAR 
 unknown system                          
     16      1     12
 
  0.0000000E+00  0.0000000E+00  0.0000000E+00  0.1000000E+01
      1        -18.199304   1.000000
      2        -12.001745   1.000000
      3         -2.799410   1.000000
      4         -2.799374   1.000000
      5         -2.080379   1.000000
      6          4.396123   1.000000
      7          4.542814   1.000000
      8          4.542820   1.000000
      9         12.514564   0.000000
     10         15.125113   0.000000
     11         15.139861   0.000000
     12         20.254842   0.000000
