       N       E                     dE             d eps       ncg     rms          rms(c)
DAV:   1     0.125575650137E+03    0.12558E+03   -0.19140E+04    24   0.305E+03
DAV:   2    -0.164768077317E+02   -0.14205E+03   -0.11696E+03    28   0.402E+02
DAV:   3    -0.203135711596E+02   -0.38368E+01   -0.38273E+01    28   0.640E+01
DAV:   4    -0.203330748072E+02   -0.19504E-01   -0.19503E-01    24   0.480E+00
DAV:   5    -0.203332971129E+02   -0.22231E-03   -0.22230E-03    28   0.448E-01    0.129E+01
RMM:   6    -0.162341860541E+02    0.40991E+01   -0.10902E+01    24   0.292E+01    0.451E+00
RMM:   7    -0.163209730844E+02   -0.86787E-01   -0.19512E+00    24   0.131E+01    0.284E+00
RMM:   8    -0.164710609396E+02   -0.15009E+00   -0.18792E-01    24   0.575E+00    0.976E-01
RMM:   9    -0.164563489291E+02    0.14712E-01   -0.30841E-02    25   0.168E+00    0.150E-01
RMM:  10    -0.164572676739E+02   -0.91874E-03   -0.10092E-02    25   0.953E-01    0.156E-01
RMM:  11    -0.164569178850E+02    0.34979E-03   -0.12902E-03    26   0.379E-01    0.239E-02
RMM:  12    -0.164569248917E+02   -0.70067E-05   -0.11620E-04    28   0.114E-01    0.658E-03
RMM:  13    -0.164569274397E+02   -0.25480E-05   -0.97762E-06    25   0.350E-02    0.257E-03
RMM:  14    -0.164569274648E+02   -0.25122E-07   -0.31528E-06    23   0.144E-02
   1 F= -.17635011E+02 E0= -.17635011E+02  d E =-.127942E-17
