 vasp.6.4.3 19Mar24 (build Jun 21 2025 18:38:16) complex                        
  
 executed on             LinuxIFC date 2025.06.26  13:54:27
 running    1 mpi-ranks, on    1 nodes
 distrk:  each k-point on    1 cores,    1 groups
 distr:  one band on NCORE=   1 cores,    1 groups


--------------------------------------------------------------------------------------------------------


 INCAR:
   PREC = A
   ENCUT = 1500
   ISYM = 0
   ALGO = fast
   EDIFF = 1.000000e-06
   LREAL = .FALSE.
   NPAR = 2
   KPAR = 1
   NELMIN = 4
   ISIF = 2
   ISMEAR = 0
   SIGMA = 0.050000
   IBRION = -1
   NSW = 0
   LWAVE = F
   LCHARG = F
   PSTRESS = 0
   LASPH = T
   GGA = RE
   IVDW = 12

 POTCAR:    PAW_PBE H 15Jun2001                   
 POTCAR:    PAW_PBE O 08Apr2002                   
 -----------------------------------------------------------------------------
|                                                                             |
|           W    W    AA    RRRRR   N    N  II  N    N   GGGG   !!!           |
|           W    W   A  A   R    R  NN   N  II  NN   N  G    G  !!!           |
|           W    W  A    A  R    R  N N  N  II  N N  N  G       !!!           |
|           W WW W  AAAAAA  RRRRR   N  N N  II  N  N N  G  GGG   !            |
|           WW  WW  A    A  R   R   N   NN  II  N   NN  G    G                |
|           W    W  A    A  R    R  N    N  II  N    N   GGGG   !!!           |
|                                                                             |
|     The value NPAR = 2 specified in the INCAR file was overwritten,         |
|     because it was not compatible with the 1 processes available:           |
|     NPAR = 1                                                                |
|     was used instead, please check that this makes sense for your           |
|     machine.                                                                |
|                                                                             |
 -----------------------------------------------------------------------------

 POTCAR:    PAW_PBE H 15Jun2001                   
   SHA256 =  030f79b5d3ab3cf0e668861823c8fb652ff669f3e15e46930bd03bfd63a607b6 H/POTCAR              
   COPYR  = (c) Copyright 15Jun2001 Georg Kresse                                                    
   COPYR  = This file is part of the software VASP. Any use, copying, and all other rights are regul
   COPYR  = If you do not have a valid VASP license, you may not use, copy or distribute this file. 
   VRHFIN =H: ultrasoft test                                                                        
   LEXCH  = PE                                                                                      
   EATOM  =    12.4884 eV,    0.9179 Ry                                                             
                                                                                                    
   TITEL  = PAW_PBE H 15Jun2001                                                                     
   LULTRA =        F    use ultrasoft PP ?                                                          
   IUNSCR =        0    unscreen: 0-lin 1-nonlin 2-no                                               
   RPACOR =    0.000    partial core radius                                                         
   POMASS =    1.000; ZVAL   =    1.000    mass and valenz                                          
   RCORE  =    1.100    outmost cutoff radius                                                       
   RWIGS  =    0.700; RWIGS  =    0.370    wigner-seitz radius (au A)                               
   ENMAX  =  250.000; ENMIN  =  200.000 eV                                                          
   RCLOC  =    0.701    cutoff for local pot                                                        
   LCOR   =        T    correct aug charges                                                         
   LPAW   =        T    paw PP                                                                      
   EAUG   =  400.000                                                                                
   RMAX   =    1.123    core radius for proj-oper                                                   
   RAUG   =    1.200    factor for augmentation sphere                                              
   RDEP   =    1.112    radius for radial grids                                                     
   RDEPT  =    0.926    core radius for aug-charge                                                  
                                                                                                    
   Atomic configuration                                                                             
    2 entries                                                                                       
     n  l   j            E        occ.                                                              
     1  0  0.50        -6.4927   1.0000                                                             
     2  1  0.50        -3.4015   0.0000                                                             
   Description                                                                                      
     l       E           TYP  RCUT    TYP  RCUT                                                     
     0     -6.4927494     23  1.100                                                                 
     0      6.8029130     23  1.100                                                                 
     1     -4.0817478     23  1.100                                                                 
  local pseudopotential read in
  atomic valenz-charges read in
  non local Contribution for L=           0  read in
    real space projection operators read in
  non local Contribution for L=           0  read in
    real space projection operators read in
  non local Contribution for L=           1  read in
    real space projection operators read in
    PAW grid and wavefunctions read in
 
   number of l-projection  operators is LMAX  =           3
   number of lm-projection operators is LMMAX =           5
 
 POTCAR:    PAW_PBE O 08Apr2002                   
   SHA256 =  818f92134a0a090dccd8ba1447fa70422a3b330e708bb4f08108d8ae51209ddf O/POTCAR              
   COPYR  = (c) Copyright 08Apr2002 Georg Kresse                                                    
   COPYR  = This file is part of the software VASP. Any use, copying, and all other rights are regul
   COPYR  = If you do not have a valid VASP license, you may not use, copy or distribute this file. 
   VRHFIN =O: s2p4                                                                                  
   LEXCH  = PE                                                                                      
   EATOM  =   432.3788 eV,   31.7789 Ry                                                             
                                                                                                    
   TITEL  = PAW_PBE O 08Apr2002                                                                     
   LULTRA =        F    use ultrasoft PP ?                                                          
   IUNSCR =        1    unscreen: 0-lin 1-nonlin 2-no                                               
   RPACOR =    1.200    partial core radius                                                         
   POMASS =   16.000; ZVAL   =    6.000    mass and valenz                                          
   RCORE  =    1.520    outmost cutoff radius                                                       
   RWIGS  =    1.550; RWIGS  =    0.820    wigner-seitz radius (au A)                               
   ENMAX  =  400.000; ENMIN  =  300.000 eV                                                          
   ICORE  =        2    local potential                                                             
   LCOR   =        T    correct aug charges                                                         
   LPAW   =        T    paw PP                                                                      
   EAUG   =  605.392                                                                                
   DEXC   =    0.000                                                                                
   RMAX   =    1.553    core radius for proj-oper                                                   
   RAUG   =    1.300    factor for augmentation sphere                                              
   RDEP   =    1.550    radius for radial grids                                                     
   RDEPT  =    1.329    core radius for aug-charge                                                  
                                                                                                    
   Atomic configuration                                                                             
    4 entries                                                                                       
     n  l   j            E        occ.                                                              
     1  0  0.50      -514.6923   2.0000                                                             
     2  0  0.50       -23.9615   2.0000                                                             
     2  1  0.50        -9.0305   4.0000                                                             
     3  2  1.50        -9.5241   0.0000                                                             
   Description                                                                                      
     l       E           TYP  RCUT    TYP  RCUT                                                     
     0    -23.9615318     23  1.200                                                                 
     0     -9.5240782     23  1.200                                                                 
     1     -9.0304911     23  1.520                                                                 
     1      8.1634956     23  1.520                                                                 
     2     -9.5240782      7  1.500                                                                 
  local pseudopotential read in
  partial core-charges read in
  partial kinetic energy density read in
  kinetic energy density of atom read in
  atomic valenz-charges read in
  non local Contribution for L=           0  read in
    real space projection operators read in
  non local Contribution for L=           0  read in
    real space projection operators read in
  non local Contribution for L=           1  read in
    real space projection operators read in
  non local Contribution for L=           1  read in
    real space projection operators read in
    PAW grid and wavefunctions read in
 
   number of l-projection  operators is LMAX  =           4
   number of lm-projection operators is LMMAX =           8
 
 -----------------------------------------------------------------------------
|                                                                             |
|               ----> ADVICE to this user running VASP <----                  |
|                                                                             |
|     You enforced a specific xc type in the INCAR file but a different       |
|     type was found in the POTCAR file.                                      |
|     I HOPE YOU KNOW WHAT YOU ARE DOING!                                     |
|                                                                             |
 -----------------------------------------------------------------------------

  PAW_PBE H 15Jun2001                   :
 energy of atom  1       EATOM=  -12.4884
 kinetic energy error for atom=    0.0000 (will be added to EATOM!!)
  PAW_PBE O 08Apr2002                   :
 energy of atom  2       EATOM= -432.3788
 kinetic energy error for atom=    0.0005 (will be added to EATOM!!)
 
 
 POSCAR: H  O
  positions in cartesian coordinates
  No initial velocities read in
 IVDW         = 12
 VDW_S6       =    1.0000
 VDW_S8       =    2.3550
 VDW_A1       =    0.5238
 VDW_A2       =    3.5016
 VDW_RADIUS   =   50.2022 A
 VDW_CNRADIUS =   21.1671 A


 exchange-correlation table for RE
   RHO(1)=    0.500       N(1)  =     2000
   RHO(2)=  100.500       N(2)  =     4000
 


--------------------------------------------------------------------------------------------------------


 ion  position               nearest neighbor table
   1  0.783  0.783  0.217-   5 1.06   6 1.38
   2  0.217  0.217  0.217-   5 1.06   6 1.38
   3  0.283  0.717  0.717-   6 1.06   5 1.38
   4  0.717  0.283  0.717-   6 1.06   5 1.38
   5  0.000  0.000  0.000-   1 1.06   2 1.06   3 1.38   4 1.38
   6  0.500  0.500  0.500-   3 1.06   4 1.06   1 1.38   2 1.38
 

IMPORTANT INFORMATION: All symmetrisations will be switched off!
NOSYMM: (Re-)initialisation of all symmetry stuff for point group C_1.


----------------------------------------------------------------------------------------

                                     Primitive cell                                     

  volume of cell :      22.1807

  direct lattice vectors                    reciprocal lattice vectors
     2.809692000  0.000000000  0.000000000     0.355910897  0.000000000  0.000000000
     0.000000000  2.809692000  0.000000000     0.000000000  0.355910897  0.000000000
     0.000000000  0.000000000  2.809692000     0.000000000  0.000000000  0.355910897

  length of vectors
     2.809692000  2.809692000  2.809692000     0.355910897  0.355910897  0.355910897

  position of ions in fractional coordinates (direct lattice)
     0.782877640  0.782877640  0.217122360
     0.217122360  0.217122360  0.217122360
     0.282877640  0.717122360  0.717122360
     0.717122360  0.282877640  0.717122360
     0.000000000  0.000000000  0.000000000
     0.500000000  0.500000000  0.500000000

  ion indices of the primitive-cell ions
   primitive index   ion index
                 1           1
                 2           2
                 3           3
                 4           4
                 5           5
                 6           6

----------------------------------------------------------------------------------------

 
 
 KPOINTS: Gamma-point                             

Automatic generation of k-mesh.
 Grid dimensions read from file:
 generate k-points for:    1    1    1

 Generating k-lattice:

  Cartesian coordinates                     Fractional coordinates (reciprocal lattice)
     0.355910897  0.000000000  0.000000000     1.000000000  0.000000000  0.000000000
     0.000000000  0.355910897  0.000000000     0.000000000  1.000000000  0.000000000
     0.000000000  0.000000000  0.355910897     0.000000000  0.000000000  1.000000000

  Length of vectors
     0.355910897  0.355910897  0.355910897

  Shift w.r.t. Gamma in fractional coordinates (k-lattice)
     0.000000000  0.000000000  0.000000000

 
 Subroutine IBZKPT returns following result:
 ===========================================
 
 Found      1 irreducible k-points:
 
 Following reciprocal coordinates:
            Coordinates               Weight
  0.000000  0.000000  0.000000      1.000000
 
 Following cartesian coordinates:
            Coordinates               Weight
  0.000000  0.000000  0.000000      1.000000
 


--------------------------------------------------------------------------------------------------------




 Dimension of arrays:
   k-points           NKPTS =      1   k-points in BZ     NKDIM =      1   number of bands    NBANDS=     12
   number of dos      NEDOS =    301   number of ions     NIONS =      6
   non local maximal  LDIM  =      4   non local SUM 2l+1 LMDIM =      8
   total plane-waves  NPLWV =  46656
   max r-space proj   IRMAX =      1   max aug-charges    IRDMAX=  27486
   dimension x,y,z NGX =    36 NGY =   36 NGZ =   36
   dimension x,y,z NGXF=    72 NGYF=   72 NGZF=   72
   support grid    NGXF=    72 NGYF=   72 NGZF=   72
   ions per type =               4   2
   NGX,Y,Z   is equivalent  to a cutoff of  21.30, 21.30, 21.30 a.u.
   NGXF,Y,Z  is equivalent  to a cutoff of  42.60, 42.60, 42.60 a.u.

 SYSTEM =  unknown system                          
 POSCAR =  H  O                                    

 Startparameter for this run:
   NWRITE =      2    write-flag & timer
   PREC   = a         normal or accurate (medium, high low for compatibility)
   ISTART =      0    job   : 0-new  1-cont  2-samecut
   ICHARG =      2    charge: 1-file 2-atom 10-const
   ISPIN  =      1    spin polarized calculation?
   LNONCOLLINEAR =      F non collinear calculations
   LSORBIT =      F    spin-orbit coupling
   INIWAV =      1    electr: 0-lowe 1-rand  2-diag
   LASPH  =      T    aspherical Exc in radial PAW
 Electronic Relaxation 1
   ENCUT  = 1500.0 eV 110.25 Ry   10.50 a.u.   8.87  8.87  8.87*2*pi/ulx,y,z
   ENINI  = 1500.0     initial cutoff
   ENAUG  =  605.4 eV  augmentation charge cutoff
   NELM   =     60;   NELMIN=  4; NELMDL= -5     # of ELM steps 
   EDIFF  = 0.1E-05   stopping-criterion for ELM
   LREAL  =      F    real-space projection
   NLSPLINE    = F    spline interpolate recip. space projectors
   LCOMPAT=      F    compatible to vasp.4.4
   GGA_COMPAT  = T    GGA compatible to vasp.4.4-vasp.4.6
   LMAXPAW     = -100 max onsite density
   LMAXMIX     =    2 max onsite mixed and CHGCAR
   VOSKOWN=      0    Vosko Wilk Nusair interpolation
   ROPT   =    0.00000   0.00000
 Ionic relaxation
   EDIFFG = 0.1E-04   stopping-criterion for IOM
   NSW    =      0    number of steps for IOM
   NBLOCK =      1;   KBLOCK =      1    inner block; outer block 
   IBRION =     -1    ionic relax: 0-MD 1-quasi-New 2-CG
   NFREE  =      0    steps in history (QN), initial steepest desc. (CG)
   ISIF   =      2    stress and relaxation
   IWAVPR =     10    prediction:  0-non 1-charg 2-wave 3-comb
   ISYM   =      0    0-nonsym 1-usesym 2-fastsym
   LCORR  =      T    Harris-Foulkes like correction to forces

   POTIM  = 0.5000    time-step for ionic-motion
   TEIN   =    0.0    initial temperature
   TEBEG  =    0.0;   TEEND  =   0.0 temperature during run
   SMASS  =  -3.00    Nose mass-parameter (am)
   estimated Nose-frequenzy (Omega)   =  0.10E-29 period in steps = 0.13E+47 mass=  -0.180E-27a.u.
   SCALEE = 1.0000    scale energy and forces
   NPACO  =    256;   APACO  = 10.0  distance and # of slots for P.C.
   PSTRESS=    0.0 pullay stress

  Mass of Ions in am
   POMASS =   1.00 16.00
  Ionic Valenz
   ZVAL   =   1.00  6.00
  Atomic Wigner-Seitz radii
   RWIGS  =  -1.00 -1.00
  virtual crystal weights 
   VCA    =   1.00  1.00
   NELECT =      16.0000    total number of electrons
   NUPDOWN=      -1.0000    fix difference up-down

 DOS related values:
   EMIN   =  10.00;   EMAX   =-10.00  energy-range for DOS
   EFERMI =   0.00;   METHOD = LEGACY      
   ISMEAR =     0;   SIGMA  =   0.05  broadening in eV -4-tet -1-fermi 0-gaus

 Electronic relaxation 2 (details)
   IALGO  =     68    algorithm
   LDIAG  =      T    sub-space diagonalisation (order eigenvalues)
   LSUBROT=      F    optimize rotation matrix (better conditioning)
   TURBO    =      0    0=normal 1=particle mesh
   IRESTART =      0    0=no restart 2=restart with 2 vectors
   NREBOOT  =      0    no. of reboots
   NMIN     =      0    reboot dimension
   EREF     =   0.00    reference energy to select bands
   IMIX   =      4    mixing-type and parameters
     AMIX     =   0.40;   BMIX     =  1.00
     AMIX_MAG =   1.60;   BMIX_MAG =  1.00
     AMIN     =   0.10
     WC   =   100.;   INIMIX=   1;  MIXPRE=   1;  MAXMIX= -45

 Intra band minimization:
   WEIMIN = 0.0000     energy-eigenvalue tresh-hold
   EBREAK =  0.21E-07  absolut break condition
   DEPER  =   0.30     relativ break condition  

   TIME   =   0.40     timestep for ELM

  volume/ion in A,a.u.               =       3.70        24.95
  Fermi-wavevector in a.u.,A,eV,Ry     =   1.468214  2.774523 29.329442  2.155653
  Thomas-Fermi vector in A             =   2.583739
 
 Write flags
   LWAVE        =      F    write WAVECAR
   LDOWNSAMPLE  =      F    k-point downsampling of WAVECAR
   LCHARG       =      F    write CHGCAR
   LVTOT        =      F    write LOCPOT, total local potential
   LVHAR        =      F    write LOCPOT, Hartree potential only
   WRT_POTENTIAL= false  ! write potential to hdf5 file
   LELF         =      F    write electronic localiz. function (ELF)
   LORBIT       =      0    0 simple, 1 ext, 2 COOP (PROOUT), +10 PAW based schemes


 Dipole corrections
   LMONO      =      F    monopole corrections only (constant potential shift)
   LDIPOL     =      F    correct potential (dipole corrections)
   IDIPOL     =      0    1-x, 2-y, 3-z, 4-all directions 
   EPSILON    =  1.0000000 bulk dielectric constant
   LVACPOTAV  =      F  vacuum potentials using an averaging scheme for the charge density
   VACPOTFLAT =  0.1000000 required flatness to determine vacuum potential
 Exchange correlation treatment:
   GGA     = RE    functional components
   XC_C    = 1    coefficients multiplying the functional components
   LIBXC   =     F    Libxc                    
   VOSKOWN =     0    Vosko Wilk Nusair interpolation
   LHFCALC =     F    Hartree Fock is set to
   LHFONE  =     F    Hartree Fock one center treatment
   AEXX    =    0.0000 exact exchange contribution

 Parameters of functionals:
   RE:
     No parameter
 
 Van der Waals corrections
   IVDW    =    12    specifies the selected vdW correction

 Linear response parameters
   LEPSILON=     F    determine dielectric tensor
   LRPA    =     F    only Hartree local field effects (RPA)
   LNABLA  =     F    use nabla operator in PAW spheres
   LVEL    =     F    velocity operator in full k-point grid
   CSHIFT  =0.1000    complex shift for real part using Kramers Kronig
   OMEGAMAX=  -1.0    maximum frequency
   DEG_THRESHOLD= 0.2000000E-02 threshold for treating states as degnerate
   RTIME   =   -0.100 relaxation time in fs
  (WPLASMAI=    0.000 imaginary part of plasma frequency in eV, 0.658/RTIME)
   DFIELD  = 0.0000000 0.0000000 0.0000000 field for delta impulse in time
 
  Optional k-point grid parameters
   LKPOINTS_OPT  =     F    use optional k-point grid
   KPOINTS_OPT_MODE=     1    mode for optional k-point grid
 
 Orbital magnetization related:
   ORBITALMAG=     F  switch on orbital magnetization
   LCHIMAG   =     F  perturbation theory with respect to B field
   DQ        =  0.001000  dq finite difference perturbation B field
   LLRAUG    =     F  two centre corrections for induced B field
   LBONE     =     F  B-component reconstruction in AE one-centre
   LVGVCALC  =     T  calculate vGv susceptibility
   LVGVAPPL  =     F  apply vGv susceptibility instead of pGv for G=0

 Random number generation:
   RANDOM_GENERATOR = DEFAULT
   PCG_SEED         = not used


--------------------------------------------------------------------------------------------------------


 Static calculation
 charge density and potential will be updated during run
 non-spin polarized calculation
 RMM-DIIS sequential band-by-band and
  variant of blocked Davidson during initial phase
 perform sub-space diagonalisation
    before iterative eigenvector-optimisation
 modified Broyden-mixing scheme, WC =      100.0
 initial mixing is a Kerker type mixing with AMIX =  0.4000 and BMIX =      1.0000
 Hartree-type preconditioning will be used
 using additional bands            4
 reciprocal scheme for non local part
 use partial core corrections
 calculate Harris-corrections to forces 
   (improved forces if not selfconsistent)
 use gradient corrections 
 use of overlap-Matrix (Vanderbilt PP)
 Gauss-broadening in eV      SIGMA  =   0.05


--------------------------------------------------------------------------------------------------------


  energy-cutoff  :     1500.00
  volume of cell :       22.18
      direct lattice vectors                 reciprocal lattice vectors
     2.809692000  0.000000000  0.000000000     0.355910897  0.000000000  0.000000000
     0.000000000  2.809692000  0.000000000     0.000000000  0.355910897  0.000000000
     0.000000000  0.000000000  2.809692000     0.000000000  0.000000000  0.355910897

  length of vectors
     2.809692000  2.809692000  2.809692000     0.355910897  0.355910897  0.355910897


 
 k-points in units of 2pi/SCALE and weight: Gamma-point                             
   0.00000000  0.00000000  0.00000000       1.000
 
 k-points in reciprocal lattice and weights: Gamma-point                             
   0.00000000  0.00000000  0.00000000       1.000
 
 position of ions in fractional coordinates (direct lattice) 
   0.78287764  0.78287764  0.21712236
   0.21712236  0.21712236  0.21712236
   0.28287764  0.71712236  0.71712236
   0.71712236  0.28287764  0.71712236
   0.00000000  0.00000000  0.00000000
   0.50000000  0.50000000  0.50000000
 
 position of ions in cartesian coordinates  (Angst):
   2.19964504  2.19964504  0.61004696
   0.61004696  0.61004696  0.61004696
   0.79479904  2.01489296  2.01489296
   2.01489296  0.79479904  2.01489296
   0.00000000  0.00000000  0.00000000
   1.40484600  1.40484600  1.40484600
 


--------------------------------------------------------------------------------------------------------


 k-point     1 :   0.0000 0.0000 0.0000  plane waves:    2945

 maximum and minimum number of plane-waves per node :      2945     2945

 maximum number of plane-waves:      2945
 maximum index in each direction: 
   IXMAX=    8   IYMAX=    8   IZMAX=    8
   IXMIN=   -8   IYMIN=   -8   IZMIN=   -8


 serial   3D FFT for wavefunctions
 parallel 3D FFT for charge:
    minimum data exchange during FFTs selected (reduces bandwidth)


 total amount of memory used by VASP MPI-rank0    67512. kBytes
=======================================================================

   base      :      30000. kBytes
   nonl-proj :        659. kBytes
   fftplans  :      13060. kBytes
   grid      :      23203. kBytes
   one-center:         18. kBytes
   wavefun   :        572. kBytes
 
     INWAV:  cpu time      0.0000: real time      0.0000
 Broyden mixing: mesh for mixing (old mesh)
   NGX = 17   NGY = 17   NGZ = 17
  (NGX  = 72   NGY  = 72   NGZ  = 72)
  gives a total of   4913 points

 initial charge density was supplied:
 charge density of overlapping atoms calculated
 number of electron      16.0000000 magnetization 
 keeping initial charge density in first step


--------------------------------------------------------------------------------------------------------


 Maximum index for augmentation-charges        26529 (set IRDMAX)


--------------------------------------------------------------------------------------------------------


 First call to EWALD:  gamma=   0.631
 Maximum number of real-space cells 3x 3x 3
 Maximum number of reciprocal cells 3x 3x 3

    FEWALD:  cpu time      0.0004: real time      0.0004


--------------------------------------- Ionic step        1  -------------------------------------------




--------------------------------------- Iteration      1(   1)  ---------------------------------------


    POTLOK:  cpu time      0.0986: real time      0.0986
    SETDIJ:  cpu time      0.1949: real time      0.1949
     EDDAV:  cpu time      0.0280: real time      0.0280
       DOS:  cpu time      0.0001: real time      0.0001
    --------------------------------------------
      LOOP:  cpu time      0.3216: real time      0.3216

 eigenvalue-minimisations  :    24
 total energy-change (2. order) : 0.1255757E+03  (-0.1913974E+04)
 number of electron      16.0000000 magnetization 
 augmentation part       16.0000000 magnetization 

 Free energy of the ion-electron system (eV)
  ---------------------------------------------------
  alpha Z        PSCENC =        40.44071196
  Ewald energy   TEWEN  =      -757.24489080
  -Hartree energ DENC   =      -179.92324992
  -exchange      EXHF   =         0.00000000
  -V(xc)+E(xc)   XCENC  =        68.13830316
  PAW double counting   =       701.99784820     -704.63961204
  entropy T*S    EENTRO =        -0.00000000
  eigenvalues    EBANDS =        42.51182357
  atomic energy  EATOM  =       914.29471601
  Solvation  Ediel_sol  =         0.00000000
  ---------------------------------------------------
  free energy    TOTEN  =       125.57565014 eV

  energy without entropy =      125.57565014  energy(sigma->0) =      125.57565014


--------------------------------------------------------------------------------------------------------




--------------------------------------- Iteration      1(   2)  ---------------------------------------


     EDDAV:  cpu time      0.0272: real time      0.0273
       DOS:  cpu time      0.0000: real time      0.0000
    --------------------------------------------
      LOOP:  cpu time      0.0272: real time      0.0273

 eigenvalue-minimisations  :    28
 total energy-change (2. order) :-0.1420525E+03  (-0.1169624E+03)
 number of electron      16.0000000 magnetization 
 augmentation part       16.0000000 magnetization 

 Free energy of the ion-electron system (eV)
  ---------------------------------------------------
  alpha Z        PSCENC =        40.44071196
  Ewald energy   TEWEN  =      -757.24489080
  -Hartree energ DENC   =      -179.92324992
  -exchange      EXHF   =         0.00000000
  -V(xc)+E(xc)   XCENC  =        68.13830316
  PAW double counting   =       701.99784820     -704.63961204
  entropy T*S    EENTRO =        -0.00000000
  eigenvalues    EBANDS =       -99.54063430
  atomic energy  EATOM  =       914.29471601
  Solvation  Ediel_sol  =         0.00000000
  ---------------------------------------------------
  free energy    TOTEN  =       -16.47680773 eV

  energy without entropy =      -16.47680773  energy(sigma->0) =      -16.47680773


--------------------------------------------------------------------------------------------------------




--------------------------------------- Iteration      1(   3)  ---------------------------------------


     EDDAV:  cpu time      0.0250: real time      0.0250
       DOS:  cpu time      0.0000: real time      0.0000
    --------------------------------------------
      LOOP:  cpu time      0.0250: real time      0.0250

 eigenvalue-minimisations  :    28
 total energy-change (2. order) :-0.3836763E+01  (-0.3827342E+01)
 number of electron      16.0000000 magnetization 
 augmentation part       16.0000000 magnetization 

 Free energy of the ion-electron system (eV)
  ---------------------------------------------------
  alpha Z        PSCENC =        40.44071196
  Ewald energy   TEWEN  =      -757.24489080
  -Hartree energ DENC   =      -179.92324992
  -exchange      EXHF   =         0.00000000
  -V(xc)+E(xc)   XCENC  =        68.13830316
  PAW double counting   =       701.99784820     -704.63961204
  entropy T*S    EENTRO =        -0.00000000
  eigenvalues    EBANDS =      -103.37739773
  atomic energy  EATOM  =       914.29471601
  Solvation  Ediel_sol  =         0.00000000
  ---------------------------------------------------
  free energy    TOTEN  =       -20.31357116 eV

  energy without entropy =      -20.31357116  energy(sigma->0) =      -20.31357116


--------------------------------------------------------------------------------------------------------




--------------------------------------- Iteration      1(   4)  ---------------------------------------


     EDDAV:  cpu time      0.0223: real time      0.0224
       DOS:  cpu time      0.0000: real time      0.0000
    --------------------------------------------
      LOOP:  cpu time      0.0224: real time      0.0224

 eigenvalue-minimisations  :    24
 total energy-change (2. order) :-0.1950365E-01  (-0.1950332E-01)
 number of electron      16.0000000 magnetization 
 augmentation part       16.0000000 magnetization 

 Free energy of the ion-electron system (eV)
  ---------------------------------------------------
  alpha Z        PSCENC =        40.44071196
  Ewald energy   TEWEN  =      -757.24489080
  -Hartree energ DENC   =      -179.92324992
  -exchange      EXHF   =         0.00000000
  -V(xc)+E(xc)   XCENC  =        68.13830316
  PAW double counting   =       701.99784820     -704.63961204
  entropy T*S    EENTRO =        -0.00000000
  eigenvalues    EBANDS =      -103.39690138
  atomic energy  EATOM  =       914.29471601
  Solvation  Ediel_sol  =         0.00000000
  ---------------------------------------------------
  free energy    TOTEN  =       -20.33307481 eV

  energy without entropy =      -20.33307481  energy(sigma->0) =      -20.33307481


--------------------------------------------------------------------------------------------------------




--------------------------------------- Iteration      1(   5)  ---------------------------------------


     EDDAV:  cpu time      0.0250: real time      0.0250
       DOS:  cpu time      0.0000: real time      0.0000
    CHARGE:  cpu time      0.0110: real time      0.0110
    MIXING:  cpu time      0.0049: real time      0.0049
    --------------------------------------------
      LOOP:  cpu time      0.0410: real time      0.0410

 eigenvalue-minimisations  :    28
 total energy-change (2. order) :-0.2223057E-03  (-0.2223037E-03)
 number of electron      16.0000001 magnetization 
 augmentation part        1.8789692 magnetization 

 Broyden mixing:
  rms(total) = 0.12881E+01    rms(broyden)= 0.12881E+01
  rms(prec ) = 0.38079E+01
  weight for this iteration     100.00

 Free energy of the ion-electron system (eV)
  ---------------------------------------------------
  alpha Z        PSCENC =        40.44071196
  Ewald energy   TEWEN  =      -757.24489080
  -Hartree energ DENC   =      -179.92324992
  -exchange      EXHF   =         0.00000000
  -V(xc)+E(xc)   XCENC  =        68.13830316
  PAW double counting   =       701.99784820     -704.63961204
  entropy T*S    EENTRO =        -0.00000000
  eigenvalues    EBANDS =      -103.39712368
  atomic energy  EATOM  =       914.29471601
  Solvation  Ediel_sol  =         0.00000000
  ---------------------------------------------------
  free energy    TOTEN  =       -20.33329711 eV

  energy without entropy =      -20.33329711  energy(sigma->0) =      -20.33329711


--------------------------------------------------------------------------------------------------------




--------------------------------------- Iteration      1(   6)  ---------------------------------------


    POTLOK:  cpu time      0.0988: real time      0.0988
    SETDIJ:  cpu time      0.1938: real time      0.1938
    EDDIAG:  cpu time      0.0053: real time      0.0053
  RMM-DIIS:  cpu time      0.0233: real time      0.0233
    ORTHCH:  cpu time      0.0002: real time      0.0002
       DOS:  cpu time      0.0000: real time      0.0000
    CHARGE:  cpu time      0.0082: real time      0.0082
    MIXING:  cpu time      0.0048: real time      0.0048
    --------------------------------------------
      LOOP:  cpu time      0.3344: real time      0.3344

 eigenvalue-minimisations  :    24
 total energy-change (2. order) : 0.4099111E+01  (-0.1090239E+01)
 number of electron      16.0000001 magnetization 
 augmentation part        1.7083635 magnetization 

 Broyden mixing:
  rms(total) = 0.45112E+00    rms(broyden)= 0.45112E+00
  rms(prec ) = 0.12272E+01
  weight for this iteration     100.00

 eigenvalues of (default mixing * dielectric matrix)
  average eigenvalue GAMMA=   1.2133
  1.2133

 Free energy of the ion-electron system (eV)
  ---------------------------------------------------
  alpha Z        PSCENC =        40.44071196
  Ewald energy   TEWEN  =      -757.24489080
  -Hartree energ DENC   =      -215.51843483
  -exchange      EXHF   =         0.00000000
  -V(xc)+E(xc)   XCENC  =        70.57955222
  PAW double counting   =       909.16006998     -912.88607217
  entropy T*S    EENTRO =        -0.00000000
  eigenvalues    EBANDS =       -65.05983841
  atomic energy  EATOM  =       914.29471601
  Solvation  Ediel_sol  =         0.00000000
  ---------------------------------------------------
  free energy    TOTEN  =       -16.23418605 eV

  energy without entropy =      -16.23418605  energy(sigma->0) =      -16.23418605


--------------------------------------------------------------------------------------------------------




--------------------------------------- Iteration      1(   7)  ---------------------------------------


    POTLOK:  cpu time      0.0931: real time      0.0931
    SETDIJ:  cpu time      0.1945: real time      0.1945
    EDDIAG:  cpu time      0.0051: real time      0.0051
  RMM-DIIS:  cpu time      0.0221: real time      0.0221
    ORTHCH:  cpu time      0.0002: real time      0.0002
       DOS:  cpu time      0.0000: real time      0.0000
    CHARGE:  cpu time      0.0086: real time      0.0086
    MIXING:  cpu time      0.0041: real time      0.0041
    --------------------------------------------
      LOOP:  cpu time      0.3279: real time      0.3279

 eigenvalue-minimisations  :    24
 total energy-change (2. order) :-0.8678703E-01  (-0.1951185E+00)
 number of electron      16.0000001 magnetization 
 augmentation part        1.6472060 magnetization 

 Broyden mixing:
  rms(total) = 0.28389E+00    rms(broyden)= 0.28389E+00
  rms(prec ) = 0.59933E+00
  weight for this iteration     100.00

 eigenvalues of (default mixing * dielectric matrix)
  average eigenvalue GAMMA=   2.0725
  1.3771  2.7678

 Free energy of the ion-electron system (eV)
  ---------------------------------------------------
  alpha Z        PSCENC =        40.44071196
  Ewald energy   TEWEN  =      -757.24489080
  -Hartree energ DENC   =      -229.15543628
  -exchange      EXHF   =         0.00000000
  -V(xc)+E(xc)   XCENC  =        71.53833432
  PAW double counting   =      1077.13148229    -1081.32753248
  entropy T*S    EENTRO =        -0.00000000
  eigenvalues    EBANDS =       -51.99835809
  atomic energy  EATOM  =       914.29471601
  Solvation  Ediel_sol  =         0.00000000
  ---------------------------------------------------
  free energy    TOTEN  =       -16.32097308 eV

  energy without entropy =      -16.32097308  energy(sigma->0) =      -16.32097308


--------------------------------------------------------------------------------------------------------




--------------------------------------- Iteration      1(   8)  ---------------------------------------


    POTLOK:  cpu time      0.0930: real time      0.0930
    SETDIJ:  cpu time      0.1934: real time      0.1934
    EDDIAG:  cpu time      0.0052: real time      0.0052
  RMM-DIIS:  cpu time      0.0224: real time      0.0224
    ORTHCH:  cpu time      0.0002: real time      0.0002
       DOS:  cpu time      0.0000: real time      0.0000
    CHARGE:  cpu time      0.0084: real time      0.0084
    MIXING:  cpu time      0.0041: real time      0.0041
    --------------------------------------------
      LOOP:  cpu time      0.3268: real time      0.3268

 eigenvalue-minimisations  :    24
 total energy-change (2. order) :-0.1500879E+00  (-0.1879220E-01)
 number of electron      16.0000001 magnetization 
 augmentation part        1.6597004 magnetization 

 Broyden mixing:
  rms(total) = 0.97602E-01    rms(broyden)= 0.97602E-01
  rms(prec ) = 0.21878E+00
  weight for this iteration     100.00

 eigenvalues of (default mixing * dielectric matrix)
  average eigenvalue GAMMA=   1.6228
  2.5916  1.1384  1.1384

 Free energy of the ion-electron system (eV)
  ---------------------------------------------------
  alpha Z        PSCENC =        40.44071196
  Ewald energy   TEWEN  =      -757.24489080
  -Hartree energ DENC   =      -231.17752943
  -exchange      EXHF   =         0.00000000
  -V(xc)+E(xc)   XCENC  =        71.87406278
  PAW double counting   =      1279.00222389    -1283.29120362
  entropy T*S    EENTRO =        -0.00000000
  eigenvalues    EBANDS =       -50.36915172
  atomic energy  EATOM  =       914.29471601
  Solvation  Ediel_sol  =         0.00000000
  ---------------------------------------------------
  free energy    TOTEN  =       -16.47106094 eV

  energy without entropy =      -16.47106094  energy(sigma->0) =      -16.47106094


--------------------------------------------------------------------------------------------------------




--------------------------------------- Iteration      1(   9)  ---------------------------------------


    POTLOK:  cpu time      0.0929: real time      0.0929
    SETDIJ:  cpu time      0.1940: real time      0.1940
    EDDIAG:  cpu time      0.0053: real time      0.0053
  RMM-DIIS:  cpu time      0.0232: real time      0.0232
    ORTHCH:  cpu time      0.0003: real time      0.0003
       DOS:  cpu time      0.0000: real time      0.0000
    CHARGE:  cpu time      0.0088: real time      0.0088
    MIXING:  cpu time      0.0042: real time      0.0042
    --------------------------------------------
      LOOP:  cpu time      0.3288: real time      0.3287

 eigenvalue-minimisations  :    25
 total energy-change (2. order) : 0.1471201E-01  (-0.3084111E-02)
 number of electron      16.0000001 magnetization 
 augmentation part        1.6541280 magnetization 

 Broyden mixing:
  rms(total) = 0.15042E-01    rms(broyden)= 0.15041E-01
  rms(prec ) = 0.31441E-01
  weight for this iteration     100.00

 eigenvalues of (default mixing * dielectric matrix)
  average eigenvalue GAMMA=   1.7202
  2.2802  2.2802  1.0608  1.2597

 Free energy of the ion-electron system (eV)
  ---------------------------------------------------
  alpha Z        PSCENC =        40.44071196
  Ewald energy   TEWEN  =      -757.24489080
  -Hartree energ DENC   =      -232.66258829
  -exchange      EXHF   =         0.00000000
  -V(xc)+E(xc)   XCENC  =        71.93155244
  PAW double counting   =      1251.76994433    -1256.09002917
  entropy T*S    EENTRO =        -0.00000000
  eigenvalues    EBANDS =       -48.89576541
  atomic energy  EATOM  =       914.29471601
  Solvation  Ediel_sol  =         0.00000000
  ---------------------------------------------------
  free energy    TOTEN  =       -16.45634893 eV

  energy without entropy =      -16.45634893  energy(sigma->0) =      -16.45634893


--------------------------------------------------------------------------------------------------------




--------------------------------------- Iteration      1(  10)  ---------------------------------------


    POTLOK:  cpu time      0.0930: real time      0.0930
    SETDIJ:  cpu time      0.1936: real time      0.1936
    EDDIAG:  cpu time      0.0051: real time      0.0051
  RMM-DIIS:  cpu time      0.0228: real time      0.0228
    ORTHCH:  cpu time      0.0003: real time      0.0003
       DOS:  cpu time      0.0000: real time      0.0000
    CHARGE:  cpu time      0.0084: real time      0.0084
    MIXING:  cpu time      0.0043: real time      0.0043
    --------------------------------------------
      LOOP:  cpu time      0.3274: real time      0.3274

 eigenvalue-minimisations  :    25
 total energy-change (2. order) :-0.9187448E-03  (-0.1009182E-02)
 number of electron      16.0000001 magnetization 
 augmentation part        1.6498212 magnetization 

 Broyden mixing:
  rms(total) = 0.15597E-01    rms(broyden)= 0.15597E-01
  rms(prec ) = 0.37724E-01
  weight for this iteration     100.00

 eigenvalues of (default mixing * dielectric matrix)
  average eigenvalue GAMMA=   1.6681
  2.6323  2.5011  1.1359  1.1359  0.9350

 Free energy of the ion-electron system (eV)
  ---------------------------------------------------
  alpha Z        PSCENC =        40.44071196
  Ewald energy   TEWEN  =      -757.24489080
  -Hartree energ DENC   =      -233.13258690
  -exchange      EXHF   =         0.00000000
  -V(xc)+E(xc)   XCENC  =        71.96021824
  PAW double counting   =      1242.66487218    -1246.99861071
  entropy T*S    EENTRO =        -0.00000000
  eigenvalues    EBANDS =       -48.44169765
  atomic energy  EATOM  =       914.29471601
  Solvation  Ediel_sol  =         0.00000000
  ---------------------------------------------------
  free energy    TOTEN  =       -16.45726767 eV

  energy without entropy =      -16.45726767  energy(sigma->0) =      -16.45726767


--------------------------------------------------------------------------------------------------------




--------------------------------------- Iteration      1(  11)  ---------------------------------------


    POTLOK:  cpu time      0.0929: real time      0.0929
    SETDIJ:  cpu time      0.1940: real time      0.1940
    EDDIAG:  cpu time      0.0052: real time      0.0052
  RMM-DIIS:  cpu time      0.0240: real time      0.0240
    ORTHCH:  cpu time      0.0002: real time      0.0002
       DOS:  cpu time      0.0000: real time      0.0000
    CHARGE:  cpu time      0.0083: real time      0.0083
    MIXING:  cpu time      0.0044: real time      0.0044
    --------------------------------------------
      LOOP:  cpu time      0.3290: real time      0.3290

 eigenvalue-minimisations  :    26
 total energy-change (2. order) : 0.3497889E-03  (-0.1290235E-03)
 number of electron      16.0000001 magnetization 
 augmentation part        1.6511316 magnetization 

 Broyden mixing:
  rms(total) = 0.23936E-02    rms(broyden)= 0.23936E-02
  rms(prec ) = 0.60073E-02
  weight for this iteration     100.00

 eigenvalues of (default mixing * dielectric matrix)
  average eigenvalue GAMMA=   1.6335
  2.6028  2.6028  1.3296  0.9211  1.1723  1.1723

 Free energy of the ion-electron system (eV)
  ---------------------------------------------------
  alpha Z        PSCENC =        40.44071196
  Ewald energy   TEWEN  =      -757.24489080
  -Hartree energ DENC   =      -232.79337620
  -exchange      EXHF   =         0.00000000
  -V(xc)+E(xc)   XCENC  =        71.94329433
  PAW double counting   =      1242.96080210    -1247.28339234
  entropy T*S    EENTRO =        -0.00000000
  eigenvalues    EBANDS =       -48.77478294
  atomic energy  EATOM  =       914.29471601
  Solvation  Ediel_sol  =         0.00000000
  ---------------------------------------------------
  free energy    TOTEN  =       -16.45691788 eV

  energy without entropy =      -16.45691788  energy(sigma->0) =      -16.45691788


--------------------------------------------------------------------------------------------------------




--------------------------------------- Iteration      1(  12)  ---------------------------------------


    POTLOK:  cpu time      0.0931: real time      0.0931
    SETDIJ:  cpu time      0.1944: real time      0.1944
    EDDIAG:  cpu time      0.0056: real time      0.0056
  RMM-DIIS:  cpu time      0.0266: real time      0.0266
    ORTHCH:  cpu time      0.0002: real time      0.0002
       DOS:  cpu time      0.0000: real time      0.0000
    CHARGE:  cpu time      0.0111: real time      0.0111
    MIXING:  cpu time      0.0047: real time      0.0047
    --------------------------------------------
      LOOP:  cpu time      0.3359: real time      0.3359

 eigenvalue-minimisations  :    28
 total energy-change (2. order) :-0.7006741E-05  (-0.1162029E-04)
 number of electron      16.0000001 magnetization 
 augmentation part        1.6515418 magnetization 

 Broyden mixing:
  rms(total) = 0.65836E-03    rms(broyden)= 0.65836E-03
  rms(prec ) = 0.15870E-02
  weight for this iteration     100.00

 eigenvalues of (default mixing * dielectric matrix)
  average eigenvalue GAMMA=   1.6539
  2.9318  2.6014  1.6708  0.9351  1.0113  1.2134  1.2134

 Free energy of the ion-electron system (eV)
  ---------------------------------------------------
  alpha Z        PSCENC =        40.44071196
  Ewald energy   TEWEN  =      -757.24489080
  -Hartree energ DENC   =      -232.75087034
  -exchange      EXHF   =         0.00000000
  -V(xc)+E(xc)   XCENC  =        71.94070585
  PAW double counting   =      1242.35170417    -1246.67225803
  entropy T*S    EENTRO =        -0.00000000
  eigenvalues    EBANDS =       -48.81674371
  atomic energy  EATOM  =       914.29471601
  Solvation  Ediel_sol  =         0.00000000
  ---------------------------------------------------
  free energy    TOTEN  =       -16.45692489 eV

  energy without entropy =      -16.45692489  energy(sigma->0) =      -16.45692489


--------------------------------------------------------------------------------------------------------




--------------------------------------- Iteration      1(  13)  ---------------------------------------


    POTLOK:  cpu time      0.0968: real time      0.0968
    SETDIJ:  cpu time      0.1939: real time      0.1939
    EDDIAG:  cpu time      0.0051: real time      0.0051
  RMM-DIIS:  cpu time      0.0235: real time      0.0235
    ORTHCH:  cpu time      0.0002: real time      0.0002
       DOS:  cpu time      0.0000: real time      0.0000
    CHARGE:  cpu time      0.0082: real time      0.0082
    MIXING:  cpu time      0.0045: real time      0.0045
    --------------------------------------------
      LOOP:  cpu time      0.3323: real time      0.3323

 eigenvalue-minimisations  :    25
 total energy-change (2. order) :-0.2547988E-05  (-0.9776152E-06)
 number of electron      16.0000001 magnetization 
 augmentation part        1.6515489 magnetization 

 Broyden mixing:
  rms(total) = 0.25674E-03    rms(broyden)= 0.25673E-03
  rms(prec ) = 0.60745E-03
  weight for this iteration     100.00

 eigenvalues of (default mixing * dielectric matrix)
  average eigenvalue GAMMA=   1.5961
  2.8134  2.5125  1.8335  1.1921  1.1921  0.9864  0.8951  1.3438

 Free energy of the ion-electron system (eV)
  ---------------------------------------------------
  alpha Z        PSCENC =        40.44071196
  Ewald energy   TEWEN  =      -757.24489080
  -Hartree energ DENC   =      -232.78013347
  -exchange      EXHF   =         0.00000000
  -V(xc)+E(xc)   XCENC  =        71.94344059
  PAW double counting   =      1242.47728488    -1246.79853947
  entropy T*S    EENTRO =        -0.00000000
  eigenvalues    EBANDS =       -48.78951713
  atomic energy  EATOM  =       914.29471601
  Solvation  Ediel_sol  =         0.00000000
  ---------------------------------------------------
  free energy    TOTEN  =       -16.45692744 eV

  energy without entropy =      -16.45692744  energy(sigma->0) =      -16.45692744


--------------------------------------------------------------------------------------------------------




--------------------------------------- Iteration      1(  14)  ---------------------------------------


    POTLOK:  cpu time      0.0931: real time      0.0931
    SETDIJ:  cpu time      0.1941: real time      0.1941
    EDDIAG:  cpu time      0.0051: real time      0.0051
  RMM-DIIS:  cpu time      0.0216: real time      0.0216
    ORTHCH:  cpu time      0.0002: real time      0.0002
       DOS:  cpu time      0.0000: real time      0.0000
    --------------------------------------------
      LOOP:  cpu time      0.3141: real time      0.3141

 eigenvalue-minimisations  :    23
 total energy-change (2. order) :-0.2512184E-07  (-0.3152800E-06)
 number of electron      16.0000001 magnetization 
 augmentation part        1.6515489 magnetization 

 Free energy of the ion-electron system (eV)
  ---------------------------------------------------
  alpha Z        PSCENC =        40.44071196
  Ewald energy   TEWEN  =      -757.24489080
  -Hartree energ DENC   =      -232.77237123
  -exchange      EXHF   =         0.00000000
  -V(xc)+E(xc)   XCENC  =        71.94293093
  PAW double counting   =      1242.59333948    -1246.91445732
  entropy T*S    EENTRO =        -0.00000000
  eigenvalues    EBANDS =       -48.79690649
  atomic energy  EATOM  =       914.29471601
  Solvation  Ediel_sol  =         0.00000000
  ---------------------------------------------------
  free energy    TOTEN  =       -16.45692746 eV

  energy without entropy =      -16.45692746  energy(sigma->0) =      -16.45692746


--------------------------------------------------------------------------------------------------------




 average (electrostatic) potential at core
  the test charge radii are     0.5201  0.7215
  (the norm of the test charge is              1.0000)
       1 -33.9084       2 -33.9086       3 -33.9086       4 -33.9086       5 -68.7541
       6 -68.7541
 
 
 
 E-fermi :   4.8524     XC(G=0): -11.0661     alpha+bet :-11.7316

 val. band max:        4.5428204188   @ k =   0.0000   0.0000   0.0000
 cond. band min:      12.5145636189   @ k =   0.0000   0.0000   0.0000
 fundamental gap:      7.9717432001
 Fermi energy:         4.8523540331

 k-point     1 :       0.0000    0.0000    0.0000
  band No.  band energies     occupation 
      1     -18.1993      2.00000
      2     -12.0017      2.00000
      3      -2.7994      2.00000
      4      -2.7994      2.00000
      5      -2.0804      2.00000
      6       4.3961      2.00000
      7       4.5428      2.00000
      8       4.5428      2.00000
      9      12.5146      0.00000
     10      15.1251      0.00000
     11      15.1399      0.00000
     12      20.2548      0.00000


--------------------------------------------------------------------------------------------------------


 soft charge-density along one line, spin component           1
         0         1         2         3         4         5         6         7         8         9
 total charge-density along one line
 
 pseudopotential strength for first ion, spin component:           1
 -2.239  -3.840  -0.004   0.004  -0.004
 -3.840  -6.498  -0.010   0.010  -0.010
 -0.004  -0.010  -0.360  -0.003   0.003
  0.004   0.010  -0.003  -0.360  -0.003
 -0.004  -0.010   0.003  -0.003  -0.360
 total augmentation occupancy for first ion, spin component:           1
  3.588  -0.799   0.225  -0.224   0.225
 -0.799   0.220  -0.035   0.037  -0.035
  0.225  -0.035   0.079  -0.060   0.060
 -0.224   0.037  -0.060   0.076  -0.060
  0.225  -0.035   0.060  -0.060   0.079


------------------------ aborting loop because EDIFF is reached ----------------------------------------


    CHARGE:  cpu time      0.0082: real time      0.0082
    FORLOC:  cpu time      0.0102: real time      0.0102
    FORNL :  cpu time      0.0210: real time      0.0210
    STRESS:  cpu time      0.0730: real time      0.0730
    FORCOR:  cpu time      0.0924: real time      0.0924
    FORHAR:  cpu time      0.0257: real time      0.0257
    MIXING:  cpu time      0.0045: real time      0.0045
    OFIELD:  cpu time      0.0000: real time      0.0000

 ---------------------------------------------------------------------------------------------

         DFTD3 V3.0 Rev 1        
 DF revpbe    
 parameters
 k1-k3        =   16.0000    1.3333   -4.0000
 Edisp (eV)   -1.17808

 E6    (eV) :    -0.6036
 E8    (eV) :    -0.5745
 % E8        : 48.77
    FORVDW:  cpu time      0.0812: real time      0.0812

  FORCE on cell =-STRESS in cart. coord.  units (eV):
  Direction    XX          YY          ZZ          XY          YZ          ZX
  --------------------------------------------------------------------------------------
  Alpha Z    40.44071    40.44071    40.44071
  Ewald    -252.16859  -252.16859  -252.90806     0.00000     0.00000     0.00000
  Hartree    77.63614    77.63618    77.50546    -0.00003     0.00002     0.00002
  E(xc)     -76.39332   -76.39332   -76.40071     0.00001    -0.00000     0.00000
  Local     -46.85577   -46.85591   -46.07344     0.00010    -0.00004    -0.00006
  n-local   -65.45307   -65.45316   -65.65328    -0.00001     0.00001     0.00002
  augment    15.55464    15.55466    15.56844    -0.00002    -0.00000    -0.00000
  Kinetic   326.20885   326.20894   326.97456     0.00004    -0.00002    -0.00005
  Fock        0.00000     0.00000     0.00000     0.00000     0.00000     0.00000
  vdW        -1.13726    -1.13726    -1.13643    -0.00000    -0.00000     0.00000
  -------------------------------------------------------------------------------------
  Total      17.83233    17.83226    18.31725     0.00009    -0.00004    -0.00006
  in kB    1288.07934  1288.07395  1323.10650     0.00637    -0.00292    -0.00455
  external pressure =     1299.75 kB  Pullay stress =        0.00 kB


 VOLUME and BASIS-vectors are now :
 -----------------------------------------------------------------------------
  energy-cutoff  :     1500.00
  volume of cell :       22.18
      direct lattice vectors                 reciprocal lattice vectors
     2.809692000  0.000000000  0.000000000     0.355910897  0.000000000  0.000000000
     0.000000000  2.809692000  0.000000000     0.000000000  0.355910897  0.000000000
     0.000000000  0.000000000  2.809692000     0.000000000  0.000000000  0.355910897

  length of vectors
     2.809692000  2.809692000  2.809692000     0.355910897  0.355910897  0.355910897


 FORCES acting on ions
    electron-ion (+dipol)            ewald-force                    non-local-force                 convergence-correction
 -----------------------------------------------------------------------------------------------
   0.177E+02 0.177E+02 -.170E+02   -.195E+02 -.195E+02 0.189E+02   0.303E+01 0.303E+01 -.293E+01   -.333E-04 -.477E-05 0.820E-04
   -.177E+02 -.177E+02 -.170E+02   0.195E+02 0.195E+02 0.189E+02   -.303E+01 -.303E+01 -.293E+01   0.195E-04 -.118E-04 0.103E-03
   0.177E+02 -.177E+02 -.170E+02   -.195E+02 0.195E+02 0.189E+02   0.303E+01 -.303E+01 -.293E+01   -.270E-04 0.278E-05 0.359E-04
   -.177E+02 0.177E+02 -.170E+02   0.195E+02 -.195E+02 0.189E+02   -.303E+01 0.303E+01 -.293E+01   0.369E-04 0.126E-04 0.517E-04
   0.244E-03 0.430E-03 0.194E+02   -.114E-13 -.111E-13 -.379E+02   0.169E-03 0.334E-03 0.206E+02   -.606E-03 -.741E-03 0.219E-02
   -.185E-03 -.382E-03 0.194E+02   -.367E-14 -.743E-14 -.379E+02   -.222E-03 -.302E-03 0.206E+02   0.160E-03 0.645E-03 0.100E-02
 -----------------------------------------------------------------------------------------------
   0.110E-03 0.470E-04 -.294E+02   -.439E-14 -.427E-14 0.000E+00   -.709E-05 0.272E-04 0.294E+02   -.450E-03 -.972E-04 0.346E-02
 
 
 POSITION                                       TOTAL-FORCE (eV/Angst)
 -----------------------------------------------------------------------------------
      2.19965      2.19965      0.61005         1.239910      1.239994     -1.033182
      0.61005      0.61005      0.61005        -1.239756     -1.239981     -1.033150
      0.79480      2.01489      2.01489         1.239927     -1.239988     -1.033155
      2.01489      0.79480      2.01489        -1.239757      1.239983     -1.033102
      0.00000      0.00000      0.00000        -0.000135      0.000026      2.066304
      1.40485      1.40485      1.40485        -0.000189     -0.000035      2.066286
 -----------------------------------------------------------------------------------
    total drift:                               -0.000346     -0.000023      0.002221


--------------------------------------------------------------------------------------------------------



  FREE ENERGIE OF THE ION-ELECTRON SYSTEM (eV)
  ---------------------------------------------------
  free  energy   TOTEN  =       -17.63501098 eV

  energy  without entropy=      -17.63501098  energy(sigma->0) =      -17.63501098
 


--------------------------------------------------------------------------------------------------------


    POTLOK:  cpu time      0.2874: real time      0.2874


--------------------------------------------------------------------------------------------------------


     LOOP+:  cpu time      4.1968: real time      4.1979
    4ORBIT:  cpu time      0.0000: real time      0.0000

 total amount of memory used by VASP MPI-rank0    67512. kBytes
=======================================================================

   base      :      30000. kBytes
   nonl-proj :        659. kBytes
   fftplans  :      13060. kBytes
   grid      :      23203. kBytes
   one-center:         18. kBytes
   wavefun   :        572. kBytes
 
  
  
 General timing and accounting informations for this job:
 ========================================================
  
                  Total CPU time used (sec):        4.616
                            User time (sec):        4.410
                          System time (sec):        0.206
                         Elapsed time (sec):        5.048
  
                   Maximum memory used (kb):      223704.
                   Average memory used (kb):          N/A
  
                          Minor page faults:        47525
                          Major page faults:            0
                 Voluntary context switches:         1197
