<?xml version="1.0" encoding="ISO-8859-1"?>
<modeling>
 <generator>
  <i name="program" type="string">vasp </i>
  <i name="version" type="string">6.4.3  </i>
  <i name="subversion" type="string">19Mar24 (build Jun 21 2025 18:38:16) complex                          parallel </i>
  <i name="platform" type="string">LinuxIFC </i>
  <i name="date" type="string">2025 06 26 </i>
  <i name="time" type="string">13:54:27 </i>
 </generator>
 <incar>
  <i type="string" name="PREC">A</i>
  <i type="string" name="ALGO">fast</i>
  <i type="int" name="NELMIN">     4</i>
  <i type="int" name="IBRION">    -1</i>
  <i name="EDIFF">      0.00000100</i>
  <i type="int" name="NSW">     0</i>
  <i type="int" name="ISIF">     2</i>
  <i type="int" name="ISYM">     0</i>
  <i name="ENCUT">   1500.00000000</i>
  <i type="logical" name="LREAL"> F  </i>
  <i type="int" name="ISMEAR">     0</i>
  <i name="SIGMA">      0.05000000</i>
  <i name="PSTRESS">      0.00000000</i>
  <i type="logical" name="LWAVE"> F  </i>
  <i type="logical" name="LCHARG"> F  </i>
  <i type="logical" name="LASPH"> T  </i>
  <i type="string" name="GGA">RE</i>
  <i type="int" name="IVDW">    12</i>
 </incar>
 <primitive_cell>
  <structure name="primitive_cell" >
   <crystal>
    <varray name="basis" >
     <v>       2.80969200       0.00000000       0.00000000 </v>
     <v>       0.00000000       2.80969200       0.00000000 </v>
     <v>       0.00000000       0.00000000       2.80969200 </v>
    </varray>
    <i name="volume">     22.18074580 </i>
    <varray name="rec_basis" >
     <v>       0.35591090       0.00000000       0.00000000 </v>
     <v>       0.00000000       0.35591090       0.00000000 </v>
     <v>       0.00000000       0.00000000       0.35591090 </v>
    </varray>
   </crystal>
   <varray name="positions" >
    <v>       0.78287764       0.78287764       0.21712236 </v>
    <v>       0.21712236       0.21712236       0.21712236 </v>
    <v>       0.28287764       0.71712236       0.71712236 </v>
    <v>       0.71712236       0.28287764       0.71712236 </v>
    <v>       0.00000000       0.00000000       0.00000000 </v>
    <v>       0.50000000       0.50000000       0.50000000 </v>
   </varray>
  </structure>
  <varray name="primitive_index" >
   <v type="int" >        1 </v>
   <v type="int" >        2 </v>
   <v type="int" >        3 </v>
   <v type="int" >        4 </v>
   <v type="int" >        5 </v>
   <v type="int" >        6 </v>
  </varray>
 </primitive_cell>
 <kpoints>
  <generation param="Gamma">
   <v type="int" name="divisions">       1        1        1 </v>
   <v name="usershift">      0.00000000       0.00000000       0.00000000 </v>
   <v name="genvec1">      1.00000000       0.00000000       0.00000000 </v>
   <v name="genvec2">      0.00000000       1.00000000       0.00000000 </v>
   <v name="genvec3">      0.00000000       0.00000000       1.00000000 </v>
   <v name="shift">      0.00000000       0.00000000       0.00000000 </v>
  </generation>
  <varray name="kpointlist" >
   <v>       0.00000000       0.00000000       0.00000000 </v>
  </varray>
  <varray name="weights" >
   <v>       1.00000000 </v>
  </varray>
 </kpoints>
 <parameters>
  <separator name="general" >
   <i type="string" name="SYSTEM">unknown system</i>
   <i type="logical" name="LCOMPAT"> F  </i>
  </separator>
  <separator name="electronic" >
   <i type="string" name="PREC">a</i>
   <i name="ENMAX">   1500.00000000</i>
   <i name="ENAUG">    605.39200000</i>
   <i name="EDIFF">      0.00000100</i>
   <i type="int" name="IALGO">    68</i>
   <i type="int" name="IWAVPR">    10</i>
   <i type="int" name="NBANDS">    12</i>
   <i type="int" name="NBANDSLOW">    -1</i>
   <i type="int" name="NBANDSHIGH">    -1</i>
   <i name="NELECT">     16.00000000</i>
   <i type="int" name="TURBO">     0</i>
   <i type="int" name="IRESTART">     0</i>
   <i type="int" name="NREBOOT">     0</i>
   <i type="int" name="NMIN">     0</i>
   <i name="EREF">      0.00000000</i>
   <separator name="electronic smearing" >
    <i type="int" name="ISMEAR">     0</i>
    <i name="SIGMA">      0.05000000</i>
    <i name="KSPACING">      0.50000000</i>
    <i type="logical" name="KGAMMA"> T  </i>
    <i type="logical" name="KBLOWUP"> T  </i>
   </separator>
   <separator name="electronic projectors" >
    <i type="logical" name="LREAL"> F  </i>
    <v name="ROPT">      0.00000000      0.00000000</v>
    <i type="int" name="LMAXPAW">  -100</i>
    <i type="int" name="LMAXMIX">     2</i>
    <i type="logical" name="NLSPLINE"> F  </i>
   </separator>
   <separator name="electronic startup" >
    <i type="int" name="ISTART">     0</i>
    <i type="int" name="ICHARG">     2</i>
    <i type="int" name="INIWAV">     1</i>
   </separator>
   <separator name="electronic spin" >
    <i type="int" name="ISPIN">     1</i>
    <i type="logical" name="LNONCOLLINEAR"> F  </i>
    <v name="MAGMOM">      1.00000000      1.00000000      1.00000000      1.00000000      1.00000000      1.00000000</v>
    <i name="NUPDOWN">     -1.00000000</i>
    <i type="logical" name="LSORBIT"> F  </i>
    <v name="SAXIS">      0.00000000      0.00000000      1.00000000</v>
    <i type="logical" name="LSPIRAL"> F  </i>
    <v name="QSPIRAL">      0.00000000      0.00000000      0.00000000</v>
    <i type="logical" name="LZEROZ"> F  </i>
   </separator>
   <separator name="electronic exchange-correlation" >
    <i type="logical" name="LASPH"> T  </i>
   </separator>
   <separator name="electronic convergence" >
    <i type="int" name="NELM">    60</i>
    <i type="int" name="NELMDL">    -5</i>
    <i type="int" name="NELMIN">     4</i>
    <i name="ENINI">   1500.00000000</i>
    <separator name="electronic convergence detail" >
     <i type="logical" name="LDIAG"> T  </i>
     <i type="logical" name="LSUBROT"> F  </i>
     <i name="WEIMIN">      0.00000000</i>
     <i name="EBREAK">      0.00000002</i>
     <i name="DEPER">      0.30000000</i>
     <i type="int" name="NRMM">     4</i>
     <i name="TIME">      0.40000000</i>
    </separator>
   </separator>
   <separator name="electronic mixer" >
    <i name="AMIX">      0.40000000</i>
    <i name="BMIX">      1.00000000</i>
    <i name="AMIN">      0.10000000</i>
    <i name="AMIX_MAG">      1.60000000</i>
    <i name="BMIX_MAG">      1.00000000</i>
    <separator name="electronic mixer details" >
     <i type="int" name="IMIX">     4</i>
     <i type="logical" name="MIXFIRST"> F  </i>
     <i type="int" name="MAXMIX">   -45</i>
     <i name="WC">    100.00000000</i>
     <i type="int" name="INIMIX">     1</i>
     <i type="int" name="MIXPRE">     1</i>
     <i type="int" name="MREMOVE">     5</i>
    </separator>
   </separator>
   <separator name="electronic dipolcorrection" >
    <i type="logical" name="LDIPOL"> F  </i>
    <i type="logical" name="LMONO"> F  </i>
    <i type="int" name="IDIPOL">     0</i>
    <i name="EPSILON">      1.00000000</i>
    <v name="DIPOL">   -100.00000000   -100.00000000   -100.00000000</v>
    <i name="EFIELD">      0.00000000</i>
    <i type="logical" name="LVACPOTAV"> F  </i>
   </separator>
  </separator>
  <separator name="grids" >
   <i type="int" name="NGX">    36</i>
   <i type="int" name="NGY">    36</i>
   <i type="int" name="NGZ">    36</i>
   <i type="int" name="NGXF">    72</i>
   <i type="int" name="NGYF">    72</i>
   <i type="int" name="NGZF">    72</i>
   <i type="logical" name="ADDGRID"> F  </i>
  </separator>
  <separator name="ionic" >
   <i type="int" name="NSW">     0</i>
   <i type="int" name="IBRION">    -1</i>
   <i type="int" name="MDALGO">     0</i>
   <i type="int" name="ISIF">     2</i>
   <i name="PSTRESS">      0.00000000</i>
   <i name="EDIFFG">      0.00001000</i>
   <i type="int" name="NFREE">     0</i>
   <i name="POTIM">      0.50000000</i>
   <i name="SMASS">     -3.00000000</i>
   <i name="SCALEE">      1.00000000</i>
  </separator>
  <separator name="ionic md" >
   <i name="TEBEG">      0.00010000</i>
   <i name="TEEND">      0.00010000</i>
   <i type="int" name="NBLOCK">     1</i>
   <i type="int" name="KBLOCK">     1</i>
   <i type="int" name="NPACO">   256</i>
   <i name="APACO">     10.00000000</i>
  </separator>
  <separator name="symmetry" >
   <i type="int" name="ISYM">     0</i>
   <i name="SYMPREC">      0.00001000</i>
  </separator>
  <separator name="dos" >
   <i type="int" name="LORBIT">     0</i>
   <v name="RWIGS">     -1.00000000     -1.00000000</v>
   <i type="int" name="NEDOS">   301</i>
   <i name="EMIN">     10.00000000</i>
   <i name="EMAX">    -10.00000000</i>
   <i name="EFERMI">      0.00000000</i>
  </separator>
  <separator name="writing" >
   <i type="int" name="NWRITE">     2</i>
   <i type="logical" name="LWAVE"> F  </i>
   <i type="logical" name="LDOWNSAMPLE"> F  </i>
   <i type="logical" name="LCHARG"> F  </i>
   <i type="logical" name="LPARD"> F  </i>
   <i type="logical" name="LVTOT"> F  </i>
   <i type="logical" name="LVHAR"> F  </i>
   <i type="logical" name="LELF"> F  </i>
   <i type="logical" name="LOPTICS"> F  </i>
   <v name="STM">      0.00000000      0.00000000      0.00000000      0.00000000      0.00000000      0.00000000      0.00000000</v>
  </separator>
  <separator name="performance" >
   <i type="int" name="NPAR">     1</i>
   <i type="int" name="NSIM">     4</i>
   <i type="int" name="NBLK">    -1</i>
   <i type="logical" name="LPLANE"> T  </i>
   <i type="logical" name="LSCALAPACK"> T  </i>
   <i type="logical" name="LSCAAWARE"> F  </i>
   <i type="logical" name="LSCALU"> F  </i>
   <i type="logical" name="LASYNC"> F  </i>
   <i type="logical" name="LORBITALREAL"> F  </i>
  </separator>
  <separator name="miscellaneous" >
   <i type="int" name="IDIOT">     3</i>
   <i type="int" name="PHON_NSTRUCT">    -1</i>
   <i type="logical" name="LMUSIC"> F  </i>
   <v name="POMASS">      1.00000000     16.00000000</v>
   <v name="DARWINR">      0.00000000      0.00000000</v>
   <v name="DARWINV">      1.00000000      1.00000000</v>
   <i type="logical" name="LCORR"> T  </i>
  </separator>
  <i type="logical" name="GGA_COMPAT"> T  </i>
  <i type="logical" name="LBERRY"> F  </i>
  <i type="int" name="ICORELEVEL">     0</i>
  <i type="logical" name="LDAU"> F  </i>
  <i type="int" name="I_CONSTRAINED_M">     0</i>
  <separator name="electronic exchange-correlation" >
   <i type="string" name="GGA    ">RE</i>
   <i type="string" name="XC_C">1</i>
   <i type="int" name="VOSKOWN">     0</i>
   <i type="logical" name="LHFCALC"> F  </i>
   <i type="string" name="PRECFOCK"></i>
   <i type="logical" name="LSYMGRAD"> F  </i>
   <i type="logical" name="LHFONE"> F  </i>
   <i type="logical" name="LRHFCALC"> F  </i>
   <i type="logical" name="LTHOMAS"> F  </i>
   <i type="logical" name="LMODELHF"> F  </i>
   <i type="logical" name="LFOCKACE"> F  </i>
   <i name="ENCUT4O">     -1.00000000</i>
   <i type="int" name="EXXOEP">     0</i>
   <i type="int" name="FOURORBIT">     0</i>
   <i name="AEXX">      0.00000000</i>
   <i name="HFALPHA">      0.00000000</i>
   <i name="MCALPHA">      0.00000000</i>
   <i name="ALDAX">      1.00000000</i>
   <i name="AGGAX">      1.00000000</i>
   <i name="AMGGAX">      1.00000000</i>
   <i name="ALDAC">      1.00000000</i>
   <i name="AGGAC">      1.00000000</i>
   <i name="AMGGAC">      1.00000000</i>
   <i type="int" name="NKREDX">     1</i>
   <i type="int" name="NKREDY">     1</i>
   <i type="int" name="NKREDZ">     1</i>
   <i type="logical" name="SHIFTRED"> F  </i>
   <i type="logical" name="ODDONLY"> F  </i>
   <i type="logical" name="EVENONLY"> F  </i>
   <i type="int" name="LMAXFOCK">     0</i>
   <i type="int" name="NMAXFOCKAE">     0</i>
   <i type="logical" name="LFOCKAEDFT"> F  </i>
   <i name="HFSCREEN">      0.00000000</i>
   <i name="HFSCREENC">      0.00000000</i>
   <i type="int" name="NBANDSGWLOW">     0</i>
  </separator>
  <separator name="vdW DFT" >
   <i type="logical" name="LUSE_VDW"> F  </i>
   <i type="int" name="IVDW_NL">    -1</i>
   <i type="logical" name="LSPIN_VDW"> F  </i>
   <i name="ZAB_VDW">     -0.84910000</i>
   <i name="GAMMA_VDW">      1.39626340</i>
   <i name="ALPHA_VDW">      0.00000000</i>
   <i name="PARAM1">      0.12340000</i>
   <i name="PARAM2">      1.00000000</i>
   <i name="BPARAM">      6.30000000</i>
   <i name="CPARAM">      0.00930000</i>
  </separator>
  <separator name="model GW" >
   <i type="int" name="MODEL_GW">     0</i>
   <i name="MODEL_EPS0">      2.21807458</i>
   <i name="MODEL_ALPHA">      1.00000000</i>
  </separator>
  <separator name="linear response parameters" >
   <i type="logical" name="LEPSILON"> F  </i>
   <i type="logical" name="LRPA"> F  </i>
   <i type="logical" name="LNABLA"> F  </i>
   <i type="logical" name="LVEL"> F  </i>
   <i name="CSHIFT">      0.10000000</i>
   <i name="OMEGAMAX">     -1.00000000</i>
   <i name="DEG_THRESHOLD">      0.00200000</i>
   <i name="RTIME">     -0.10000000</i>
   <i name="WPLASMAI">      0.00000000</i>
   <v name="DFIELD">      0.00000000      0.00000000      0.00000000</v>
   <v name="WPLASMA">      0.00000000      0.00000000      0.00000000      0.00000000      0.00000000      0.00000000      0.00000000      0.00000000      0.00000000</v>
  </separator>
  <separator name="orbital magnetization" >
   <i type="logical" name="NUCIND"> F  </i>
   <v name="MAGPOS">      0.00000000      0.00000000      0.00000000</v>
   <i type="logical" name="LNICSALL"> T  </i>
   <i type="logical" name="ORBITALMAG"> F  </i>
   <i type="logical" name="LMAGBLOCH"> F  </i>
   <i type="logical" name="LCHIMAG"> F  </i>
   <i type="logical" name="LGAUGE"> T  </i>
   <i type="int" name="MAGATOM">     0</i>
   <v name="MAGDIPOL">      0.00000000      0.00000000      0.00000000</v>
   <v name="AVECCONST">      0.00000000      0.00000000      0.00000000</v>
  </separator>
  <separator name="response functions" >
   <i type="logical" name="LALL_IN_ONE"> F  </i>
   <i type="int" name="IALL_IN_ONE">    -1</i>
   <i type="int" name="NBANDS_WAVE">    -1</i>
   <i type="logical" name="LFINITE_TEMPERATURE"> F  </i>
   <i type="logical" name="LADDER"> F  </i>
   <i type="logical" name="LRPAFORCE"> F  </i>
   <i type="logical" name="LFXC"> F  </i>
   <i type="logical" name="LHARTREE"> T  </i>
   <i type="int" name="IBSE">     0</i>
   <v type="int" name="KPOINT">    -1     0     0     0</v>
   <i type="logical" name="LTCTC"> F  </i>
   <i type="logical" name="LTCTE"> F  </i>
   <i type="logical" name="LTETE"> F  </i>
   <i type="logical" name="LTRIPLET"> F  </i>
   <i type="logical" name="LFXCEPS"> F  </i>
   <i type="logical" name="LFXHEG"> F  </i>
   <i type="int" name="NATURALO">     2</i>
   <i type="logical" name="LHOLEGF"> F  </i>
   <i type="logical" name="L2ORDER"> F  </i>
   <i type="logical" name="LDMP1"> F  </i>
   <i type="logical" name="LMP2LT"> F  </i>
   <i type="logical" name="LSMP2LT"> F  </i>
   <i type="logical" name="LGWLF"> F  </i>
   <i name="ENCUTGW">     -1.60000002</i>
   <i name="ENCUTGWSOFT">     -1.60000002</i>
   <i name="ENCUTLF">     -1.00000000</i>
   <i type="logical" name="ESF_SPLINES"> F  </i>
   <i name="ESF_CONV">      0.01000000</i>
   <i type="int" name="ESF_NINTER">    15</i>
   <i type="int" name="LMAXMP2">    -1</i>
   <i name="SCISSOR">      0.00000000</i>
   <i type="int" name="NOMEGA">     0</i>
   <i type="int" name="NOMEGAR">     0</i>
   <i type="int" name="NBANDSGW">    -1</i>
   <i type="int" name="NBANDSO">    -1</i>
   <i type="int" name="NBANDSV">    -1</i>
   <i type="int" name="NELMGW">     1</i>
   <i type="int" name="NELMHF">     1</i>
   <i type="int" name="DIM">     3</i>
   <i type="int" name="IESPILON">     4</i>
   <i type="int" name="ANTIRES">     0</i>
   <i name="OMEGAMAX">    -30.00000000</i>
   <i name="OMEGAMIN">    -30.00000000</i>
   <i name="OMEGATL">   -200.00000000</i>
   <i type="int" name="OMEGAGRID">     0</i>
   <i name="CSHIFT">     -0.10000000</i>
   <i type="logical" name="LSELFENERGY"> F  </i>
   <i type="logical" name="LSPECTRAL"> F  </i>
   <i type="logical" name="LSPECTRALGW"> F  </i>
   <i type="logical" name="LSINGLES"> F  </i>
   <i type="logical" name="LFERMIGW"> F  </i>
   <i type="logical" name="ODDONLYGW"> F  </i>
   <i type="logical" name="EVENONLYGW"> F  </i>
   <i type="int" name="NKREDLFX">     1</i>
   <i type="int" name="NKREDLFY">     1</i>
   <i type="int" name="NKREDLFZ">     1</i>
   <i type="int" name="MAXMEM">  2800</i>
   <i type="int" name="TELESCOPE">     0</i>
   <i type="int" name="NTAUPAR">    -1</i>
   <i type="int" name="NOMEGAPAR">    -1</i>
   <i name="DAMP_NEWTON">      0.80000001</i>
   <i name="LAMBDA">      1.00000000</i>
  </separator>
  <separator name="External order field" >
   <i name="OFIELD_KAPPA">      0.00000000</i>
   <v name="OFIELD_K">      0.00000000      0.00000000      0.00000000</v>
   <i name="OFIELD_Q6_NEAR">      0.00000000</i>
   <i name="OFIELD_Q6_FAR">      0.00000000</i>
   <i name="OFIELD_A">      0.00000000</i>
  </separator>
  <separator name="optional k-points parameters" >
   <i type="int" name="KPOINTS_OPT_MODE">     1</i>
   <i type="logical" name="LKPOINTS_OPT"> F  </i>
  </separator>
 </parameters>
 <atominfo>
  <atoms>       6 </atoms>
  <types>       2 </types>
  <array name="atoms" >
   <dimension dim="1">ion</dimension>
   <field type="string">element</field>
   <field type="int">atomtype</field>
   <set>
    <rc><c>H </c><c>   1</c></rc>
    <rc><c>H </c><c>   1</c></rc>
    <rc><c>H </c><c>   1</c></rc>
    <rc><c>H </c><c>   1</c></rc>
    <rc><c>O </c><c>   2</c></rc>
    <rc><c>O </c><c>   2</c></rc>
   </set>
  </array>
  <array name="atomtypes" >
   <dimension dim="1">type</dimension>
   <field type="int">atomspertype</field>
   <field type="string">element</field>
   <field>mass</field>
   <field>valence</field>
   <field type="string">pseudopotential</field>
   <set>
    <rc><c>   4</c><c>H </c><c>      1.00000000</c><c>      1.00000000</c><c>  PAW_PBE H 15Jun2001                   </c></rc>
    <rc><c>   2</c><c>O </c><c>     16.00000000</c><c>      6.00000000</c><c>  PAW_PBE O 08Apr2002                   </c></rc>
   </set>
  </array>
 </atominfo>
 <structure name="initialpos" >
  <crystal>
   <varray name="basis" >
    <v>       2.80969200       0.00000000       0.00000000 </v>
    <v>       0.00000000       2.80969200       0.00000000 </v>
    <v>       0.00000000       0.00000000       2.80969200 </v>
   </varray>
   <i name="volume">     22.18074580 </i>
   <varray name="rec_basis" >
    <v>       0.35591090       0.00000000       0.00000000 </v>
    <v>       0.00000000       0.35591090       0.00000000 </v>
    <v>       0.00000000       0.00000000       0.35591090 </v>
   </varray>
  </crystal>
  <varray name="positions" >
   <v>       0.78287764       0.78287764       0.21712236 </v>
   <v>       0.21712236       0.21712236       0.21712236 </v>
   <v>       0.28287764       0.71712236       0.71712236 </v>
   <v>       0.71712236       0.28287764       0.71712236 </v>
   <v>       0.00000000       0.00000000       0.00000000 </v>
   <v>       0.50000000       0.50000000       0.50000000 </v>
  </varray>
 </structure>
 <calculation>
  <scstep>
   <time name="dav">    0.03    0.03</time>
   <time name="total">    0.32    0.32</time>
   <energy>
    <i name="alphaZ">     40.44071196 </i>
    <i name="ewald">   -757.24489080 </i>
    <i name="hartreedc">   -179.92324992 </i>
    <i name="XCdc">     68.13830316 </i>
    <i name="pawpsdc">    701.99784820 </i>
    <i name="pawaedc">   -704.63961204 </i>
    <i name="eentropy">     -0.00000000 </i>
    <i name="bandstr">     42.51182357 </i>
    <i name="atom">    914.29471601 </i>
    <i name="e_fr_energy">    125.57565014 </i>
    <i name="e_wo_entrp">    125.57565014 </i>
    <i name="e_0_energy">    125.57565014 </i>
   </energy>
  </scstep>
  <scstep>
   <time name="dav">    0.03    0.03</time>
   <time name="total">    0.03    0.03</time>
   <energy>
    <i name="e_fr_energy">    -16.47680773 </i>
    <i name="e_wo_entrp">    -16.47680773 </i>
    <i name="e_0_energy">    -16.47680773 </i>
   </energy>
  </scstep>
  <scstep>
   <time name="dav">    0.02    0.02</time>
   <time name="total">    0.02    0.02</time>
   <energy>
    <i name="e_fr_energy">    -20.31357116 </i>
    <i name="e_wo_entrp">    -20.31357116 </i>
    <i name="e_0_energy">    -20.31357116 </i>
   </energy>
  </scstep>
  <scstep>
   <time name="dav">    0.02    0.02</time>
   <time name="total">    0.02    0.02</time>
   <energy>
    <i name="e_fr_energy">    -20.33307481 </i>
    <i name="e_wo_entrp">    -20.33307481 </i>
    <i name="e_0_energy">    -20.33307481 </i>
   </energy>
  </scstep>
  <scstep>
   <time name="dav">    0.03    0.03</time>
   <time name="total">    0.04    0.04</time>
   <energy>
    <i name="e_fr_energy">    -20.33329711 </i>
    <i name="e_wo_entrp">    -20.33329711 </i>
    <i name="e_0_energy">    -20.33329711 </i>
   </energy>
  </scstep>
  <scstep>
   <time name="diag">    0.01    0.01</time>
   <time name="diis">    0.02    0.02</time>
   <time name="orth">    0.00    0.00</time>
   <time name="total">    0.33    0.33</time>
   <energy>
    <i name="e_fr_energy">    -16.23418605 </i>
    <i name="e_wo_entrp">    -16.23418605 </i>
    <i name="e_0_energy">    -16.23418605 </i>
   </energy>
  </scstep>
  <scstep>
   <time name="diag">    0.01    0.01</time>
   <time name="diis">    0.02    0.02</time>
   <time name="orth">    0.00    0.00</time>
   <time name="total">    0.33    0.33</time>
   <energy>
    <i name="e_fr_energy">    -16.32097308 </i>
    <i name="e_wo_entrp">    -16.32097308 </i>
    <i name="e_0_energy">    -16.32097308 </i>
   </energy>
  </scstep>
  <scstep>
   <time name="diag">    0.01    0.01</time>
   <time name="diis">    0.02    0.02</time>
   <time name="orth">    0.00    0.00</time>
   <time name="total">    0.33    0.33</time>
   <energy>
    <i name="e_fr_energy">    -16.47106094 </i>
    <i name="e_wo_entrp">    -16.47106094 </i>
    <i name="e_0_energy">    -16.47106094 </i>
   </energy>
  </scstep>
  <scstep>
   <time name="diag">    0.01    0.01</time>
   <time name="diis">    0.02    0.02</time>
   <time name="orth">    0.00    0.00</time>
   <time name="total">    0.33    0.33</time>
   <energy>
    <i name="e_fr_energy">    -16.45634893 </i>
    <i name="e_wo_entrp">    -16.45634893 </i>
    <i name="e_0_energy">    -16.45634893 </i>
   </energy>
  </scstep>
  <scstep>
   <time name="diag">    0.01    0.01</time>
   <time name="diis">    0.02    0.02</time>
   <time name="orth">    0.00    0.00</time>
   <time name="total">    0.33    0.33</time>
   <energy>
    <i name="e_fr_energy">    -16.45726767 </i>
    <i name="e_wo_entrp">    -16.45726767 </i>
    <i name="e_0_energy">    -16.45726767 </i>
   </energy>
  </scstep>
  <scstep>
   <time name="diag">    0.01    0.01</time>
   <time name="diis">    0.02    0.02</time>
   <time name="orth">    0.00    0.00</time>
   <time name="total">    0.33    0.33</time>
   <energy>
    <i name="e_fr_energy">    -16.45691788 </i>
    <i name="e_wo_entrp">    -16.45691788 </i>
    <i name="e_0_energy">    -16.45691788 </i>
   </energy>
  </scstep>
  <scstep>
   <time name="diag">    0.01    0.01</time>
   <time name="diis">    0.03    0.03</time>
   <time name="orth">    0.00    0.00</time>
   <time name="total">    0.34    0.34</time>
   <energy>
    <i name="e_fr_energy">    -16.45692489 </i>
    <i name="e_wo_entrp">    -16.45692489 </i>
    <i name="e_0_energy">    -16.45692489 </i>
   </energy>
  </scstep>
  <scstep>
   <time name="diag">    0.01    0.01</time>
   <time name="diis">    0.02    0.02</time>
   <time name="orth">    0.00    0.00</time>
   <time name="total">    0.33    0.33</time>
   <energy>
    <i name="e_fr_energy">    -16.45692744 </i>
    <i name="e_wo_entrp">    -16.45692744 </i>
    <i name="e_0_energy">    -16.45692744 </i>
   </energy>
  </scstep>
  <scstep>
   <time name="diag">    0.01    0.01</time>
   <time name="diis">    0.02    0.02</time>
   <time name="orth">    0.00    0.00</time>
   <time name="total">    0.31    0.31</time>
   <energy>
    <i name="alphaZ">     40.44071196 </i>
    <i name="ewald">   -757.24489080 </i>
    <i name="hartreedc">   -232.77237123 </i>
    <i name="XCdc">     71.94293093 </i>
    <i name="pawpsdc">   1242.59333948 </i>
    <i name="pawaedc">  -1246.91445732 </i>
    <i name="eentropy">     -0.00000000 </i>
    <i name="bandstr">    -48.79690649 </i>
    <i name="atom">    914.29471601 </i>
    <i name="e_fr_energy">    -16.45692746 </i>
    <i name="e_wo_entrp">    -16.45692746 </i>
    <i name="e_0_energy">    -16.45692746 </i>
   </energy>
  </scstep>
  <structure>
   <crystal>
    <varray name="basis" >
     <v>       2.80969200       0.00000000       0.00000000 </v>
     <v>       0.00000000       2.80969200       0.00000000 </v>
     <v>       0.00000000       0.00000000       2.80969200 </v>
    </varray>
    <i name="volume">     22.18074580 </i>
    <varray name="rec_basis" >
     <v>       0.35591090       0.00000000       0.00000000 </v>
     <v>       0.00000000       0.35591090       0.00000000 </v>
     <v>       0.00000000       0.00000000       0.35591090 </v>
    </varray>
   </crystal>
   <varray name="positions" >
    <v>       0.78287764       0.78287764       0.21712236 </v>
    <v>       0.21712236       0.21712236       0.21712236 </v>
    <v>       0.28287764       0.71712236       0.71712236 </v>
    <v>       0.71712236       0.28287764       0.71712236 </v>
    <v>       0.00000000       0.00000000       0.00000000 </v>
    <v>       0.50000000       0.50000000       0.50000000 </v>
   </varray>
  </structure>
  <varray name="forces" >
   <v>       1.23990999       1.23999419      -1.03318241 </v>
   <v>      -1.23975591      -1.23998076      -1.03314987 </v>
   <v>       1.23992741      -1.23998807      -1.03315482 </v>
   <v>      -1.23975696       1.23998322      -1.03310199 </v>
   <v>      -0.00013549       0.00002639       2.06630352 </v>
   <v>      -0.00018905      -0.00003497       2.06628556 </v>
  </varray>
  <varray name="stress" >
   <v>    1288.07934362       0.00637057      -0.00454734 </v>
   <v>       0.00637058    1288.07395026      -0.00291527 </v>
   <v>      -0.00454725      -0.00291518    1323.10649735 </v>
  </varray>
  <energy>
   <i name="e_fr_energy">    -17.63501098 </i>
   <i name="e_wo_entrp">    -17.63501098 </i>
   <i name="e_0_energy">    -17.63501098 </i>
  </energy>
  <time name="totalsc">    4.20    4.20</time>
  <eigenvalues>
   <array>
    <dimension dim="1">band</dimension>
    <dimension dim="2">kpoint</dimension>
    <dimension dim="3">spin</dimension>
    <field>eigene</field>
    <field>occ</field>
    <set>
     <set comment="spin 1">
      <set comment="kpoint 1">
       <r>  -18.1993    1.0000 </r>
       <r>  -12.0017    1.0000 </r>
       <r>   -2.7994    1.0000 </r>
       <r>   -2.7994    1.0000 </r>
       <r>   -2.0804    1.0000 </r>
       <r>    4.3961    1.0000 </r>
       <r>    4.5428    1.0000 </r>
       <r>    4.5428    1.0000 </r>
       <r>   12.5146    0.0000 </r>
       <r>   15.1251    0.0000 </r>
       <r>   15.1399    0.0000 </r>
       <r>   20.2548    0.0000 </r>
      </set>
     </set>
    </set>
   </array>
  </eigenvalues>
  <separator name="orbital magnetization" >
   <v name="MAGDIPOLOUT">      0.00000000      0.00000000      0.00000000</v>
  </separator>
  <dos>
   <i name="efermi">      4.85235403 </i>
   <total>
    <array>
     <dimension dim="1">gridpoints</dimension>
     <dimension dim="2">spin</dimension>
     <field>energy</field>
     <field>total</field>
     <field>integrated</field>
     <set>
      <set comment="spin 1">
       <r>   -20.1220     0.0000     0.0000 </r>
       <r>   -19.9810     0.0000     0.0000 </r>
       <r>   -19.8400     0.0000     0.0000 </r>
       <r>   -19.6990     0.0000     0.0000 </r>
       <r>   -19.5580     0.0000     0.0000 </r>
       <r>   -19.4170     0.0000     0.0000 </r>
       <r>   -19.2760     0.0000     0.0000 </r>
       <r>   -19.1350     0.0000     0.0000 </r>
       <r>   -18.9940     0.0000     0.0000 </r>
       <r>   -18.8530     0.0000     0.0000 </r>
       <r>   -18.7120     0.0000     0.0000 </r>
       <r>   -18.5710     0.0000     0.0000 </r>
       <r>   -18.4300     0.0000     0.0000 </r>
       <r>   -18.2890     0.0791     0.0112 </r>
       <r>   -18.1480    13.0628     1.8530 </r>
       <r>   -18.0070     1.0426     2.0000 </r>
       <r>   -17.8660     0.0000     2.0000 </r>
       <r>   -17.7250     0.0000     2.0000 </r>
       <r>   -17.5840     0.0000     2.0000 </r>
       <r>   -17.4430     0.0000     2.0000 </r>
       <r>   -17.3020     0.0000     2.0000 </r>
       <r>   -17.1610     0.0000     2.0000 </r>
       <r>   -17.0200     0.0000     2.0000 </r>
       <r>   -16.8790     0.0000     2.0000 </r>
       <r>   -16.7380     0.0000     2.0000 </r>
       <r>   -16.5970     0.0000     2.0000 </r>
       <r>   -16.4560     0.0000     2.0000 </r>
       <r>   -16.3151     0.0000     2.0000 </r>
       <r>   -16.1741     0.0000     2.0000 </r>
       <r>   -16.0331     0.0000     2.0000 </r>
       <r>   -15.8921     0.0000     2.0000 </r>
       <r>   -15.7511     0.0000     2.0000 </r>
       <r>   -15.6101     0.0000     2.0000 </r>
       <r>   -15.4691     0.0000     2.0000 </r>
       <r>   -15.3281     0.0000     2.0000 </r>
       <r>   -15.1871     0.0000     2.0000 </r>
       <r>   -15.0461     0.0000     2.0000 </r>
       <r>   -14.9051     0.0000     2.0000 </r>
       <r>   -14.7641     0.0000     2.0000 </r>
       <r>   -14.6231     0.0000     2.0000 </r>
       <r>   -14.4821     0.0000     2.0000 </r>
       <r>   -14.3411     0.0000     2.0000 </r>
       <r>   -14.2001     0.0000     2.0000 </r>
       <r>   -14.0591     0.0000     2.0000 </r>
       <r>   -13.9181     0.0000     2.0000 </r>
       <r>   -13.7771     0.0000     2.0000 </r>
       <r>   -13.6361     0.0000     2.0000 </r>
       <r>   -13.4951     0.0000     2.0000 </r>
       <r>   -13.3541     0.0000     2.0000 </r>
       <r>   -13.2131     0.0000     2.0000 </r>
       <r>   -13.0721     0.0000     2.0000 </r>
       <r>   -12.9311     0.0000     2.0000 </r>
       <r>   -12.7901     0.0000     2.0000 </r>
       <r>   -12.6491     0.0000     2.0000 </r>
       <r>   -12.5081     0.0000     2.0000 </r>
       <r>   -12.3671     0.0000     2.0000 </r>
       <r>   -12.2261     0.0000     2.0000 </r>
       <r>   -12.0851     0.1305     2.0184 </r>
       <r>   -11.9441    13.3236     3.8970 </r>
       <r>   -11.8031     0.7304     4.0000 </r>
       <r>   -11.6621     0.0000     4.0000 </r>
       <r>   -11.5211     0.0000     4.0000 </r>
       <r>   -11.3801     0.0000     4.0000 </r>
       <r>   -11.2391     0.0000     4.0000 </r>
       <r>   -11.0981     0.0000     4.0000 </r>
       <r>   -10.9571     0.0000     4.0000 </r>
       <r>   -10.8161     0.0000     4.0000 </r>
       <r>   -10.6751     0.0000     4.0000 </r>
       <r>   -10.5341     0.0000     4.0000 </r>
       <r>   -10.3931     0.0000     4.0000 </r>
       <r>   -10.2521     0.0000     4.0000 </r>
       <r>   -10.1111     0.0000     4.0000 </r>
       <r>    -9.9701     0.0000     4.0000 </r>
       <r>    -9.8291     0.0000     4.0000 </r>
       <r>    -9.6881     0.0000     4.0000 </r>
       <r>    -9.5471     0.0000     4.0000 </r>
       <r>    -9.4061     0.0000     4.0000 </r>
       <r>    -9.2651     0.0000     4.0000 </r>
       <r>    -9.1241     0.0000     4.0000 </r>
       <r>    -8.9831     0.0000     4.0000 </r>
       <r>    -8.8421     0.0000     4.0000 </r>
       <r>    -8.7011     0.0000     4.0000 </r>
       <r>    -8.5601     0.0000     4.0000 </r>
       <r>    -8.4191     0.0000     4.0000 </r>
       <r>    -8.2781     0.0000     4.0000 </r>
       <r>    -8.1371     0.0000     4.0000 </r>
       <r>    -7.9961     0.0000     4.0000 </r>
       <r>    -7.8551     0.0000     4.0000 </r>
       <r>    -7.7141     0.0000     4.0000 </r>
       <r>    -7.5731     0.0000     4.0000 </r>
       <r>    -7.4321     0.0000     4.0000 </r>
       <r>    -7.2911     0.0000     4.0000 </r>
       <r>    -7.1501     0.0000     4.0000 </r>
       <r>    -7.0091     0.0000     4.0000 </r>
       <r>    -6.8681     0.0000     4.0000 </r>
       <r>    -6.7272     0.0000     4.0000 </r>
       <r>    -6.5862     0.0000     4.0000 </r>
       <r>    -6.4452     0.0000     4.0000 </r>
       <r>    -6.3042     0.0000     4.0000 </r>
       <r>    -6.1632     0.0000     4.0000 </r>
       <r>    -6.0222     0.0000     4.0000 </r>
       <r>    -5.8812     0.0000     4.0000 </r>
       <r>    -5.7402     0.0000     4.0000 </r>
       <r>    -5.5992     0.0000     4.0000 </r>
       <r>    -5.4582     0.0000     4.0000 </r>
       <r>    -5.3172     0.0000     4.0000 </r>
       <r>    -5.1762     0.0000     4.0000 </r>
       <r>    -5.0352     0.0000     4.0000 </r>
       <r>    -4.8942     0.0000     4.0000 </r>
       <r>    -4.7532     0.0000     4.0000 </r>
       <r>    -4.6122     0.0000     4.0000 </r>
       <r>    -4.4712     0.0000     4.0000 </r>
       <r>    -4.3302     0.0000     4.0000 </r>
       <r>    -4.1892     0.0000     4.0000 </r>
       <r>    -4.0482     0.0000     4.0000 </r>
       <r>    -3.9072     0.0000     4.0000 </r>
       <r>    -3.7662     0.0000     4.0000 </r>
       <r>    -3.6252     0.0000     4.0000 </r>
       <r>    -3.4842     0.0000     4.0000 </r>
       <r>    -3.3432     0.0000     4.0000 </r>
       <r>    -3.2022     0.0000     4.0000 </r>
       <r>    -3.0612     0.0000     4.0000 </r>
       <r>    -2.9202     0.0090     4.0013 </r>
       <r>    -2.7792    20.3066     6.8645 </r>
       <r>    -2.6382     8.0534     8.0000 </r>
       <r>    -2.4972     0.0001     8.0000 </r>
       <r>    -2.3562     0.0000     8.0000 </r>
       <r>    -2.2152     0.0010     8.0001 </r>
       <r>    -2.0742     8.0754     9.1388 </r>
       <r>    -1.9332     6.1079    10.0000 </r>
       <r>    -1.7922     0.0002    10.0000 </r>
       <r>    -1.6512     0.0000    10.0000 </r>
       <r>    -1.5102     0.0000    10.0000 </r>
       <r>    -1.3692     0.0000    10.0000 </r>
       <r>    -1.2282     0.0000    10.0000 </r>
       <r>    -1.0872     0.0000    10.0000 </r>
       <r>    -0.9462     0.0000    10.0000 </r>
       <r>    -0.8052     0.0000    10.0000 </r>
       <r>    -0.6642     0.0000    10.0000 </r>
       <r>    -0.5232     0.0000    10.0000 </r>
       <r>    -0.3822     0.0000    10.0000 </r>
       <r>    -0.2412     0.0000    10.0000 </r>
       <r>    -0.1002     0.0000    10.0000 </r>
       <r>     0.0408     0.0000    10.0000 </r>
       <r>     0.1818     0.0000    10.0000 </r>
       <r>     0.3228     0.0000    10.0000 </r>
       <r>     0.4638     0.0000    10.0000 </r>
       <r>     0.6048     0.0000    10.0000 </r>
       <r>     0.7458     0.0000    10.0000 </r>
       <r>     0.8868     0.0000    10.0000 </r>
       <r>     1.0278     0.0000    10.0000 </r>
       <r>     1.1688     0.0000    10.0000 </r>
       <r>     1.3098     0.0000    10.0000 </r>
       <r>     1.4508     0.0000    10.0000 </r>
       <r>     1.5918     0.0000    10.0000 </r>
       <r>     1.7328     0.0000    10.0000 </r>
       <r>     1.8738     0.0000    10.0000 </r>
       <r>     2.0148     0.0000    10.0000 </r>
       <r>     2.1558     0.0000    10.0000 </r>
       <r>     2.2968     0.0000    10.0000 </r>
       <r>     2.4378     0.0000    10.0000 </r>
       <r>     2.5788     0.0000    10.0000 </r>
       <r>     2.7198     0.0000    10.0000 </r>
       <r>     2.8607     0.0000    10.0000 </r>
       <r>     3.0017     0.0000    10.0000 </r>
       <r>     3.1427     0.0000    10.0000 </r>
       <r>     3.2837     0.0000    10.0000 </r>
       <r>     3.4247     0.0000    10.0000 </r>
       <r>     3.5657     0.0000    10.0000 </r>
       <r>     3.7067     0.0000    10.0000 </r>
       <r>     3.8477     0.0000    10.0000 </r>
       <r>     3.9887     0.0000    10.0000 </r>
       <r>     4.1297     0.0000    10.0000 </r>
       <r>     4.2707     0.0028    10.0004 </r>
       <r>     4.4117     9.5121    11.3416 </r>
       <r>     4.5527    21.9868    14.4417 </r>
       <r>     4.6937    11.0516    16.0000 </r>
       <r>     4.8347     0.0003    16.0000 </r>
       <r>     4.9757     0.0000    16.0000 </r>
       <r>     5.1167     0.0000    16.0000 </r>
       <r>     5.2577     0.0000    16.0000 </r>
       <r>     5.3987     0.0000    16.0000 </r>
       <r>     5.5397     0.0000    16.0000 </r>
       <r>     5.6807     0.0000    16.0000 </r>
       <r>     5.8217     0.0000    16.0000 </r>
       <r>     5.9627     0.0000    16.0000 </r>
       <r>     6.1037     0.0000    16.0000 </r>
       <r>     6.2447     0.0000    16.0000 </r>
       <r>     6.3857     0.0000    16.0000 </r>
       <r>     6.5267     0.0000    16.0000 </r>
       <r>     6.6677     0.0000    16.0000 </r>
       <r>     6.8087     0.0000    16.0000 </r>
       <r>     6.9497     0.0000    16.0000 </r>
       <r>     7.0907     0.0000    16.0000 </r>
       <r>     7.2317     0.0000    16.0000 </r>
       <r>     7.3727     0.0000    16.0000 </r>
       <r>     7.5137     0.0000    16.0000 </r>
       <r>     7.6547     0.0000    16.0000 </r>
       <r>     7.7957     0.0000    16.0000 </r>
       <r>     7.9367     0.0000    16.0000 </r>
       <r>     8.0777     0.0000    16.0000 </r>
       <r>     8.2187     0.0000    16.0000 </r>
       <r>     8.3597     0.0000    16.0000 </r>
       <r>     8.5007     0.0000    16.0000 </r>
       <r>     8.6417     0.0000    16.0000 </r>
       <r>     8.7827     0.0000    16.0000 </r>
       <r>     8.9237     0.0000    16.0000 </r>
       <r>     9.0647     0.0000    16.0000 </r>
       <r>     9.2057     0.0000    16.0000 </r>
       <r>     9.3467     0.0000    16.0000 </r>
       <r>     9.4877     0.0000    16.0000 </r>
       <r>     9.6287     0.0000    16.0000 </r>
       <r>     9.7697     0.0000    16.0000 </r>
       <r>     9.9107     0.0000    16.0000 </r>
       <r>    10.0517     0.0000    16.0000 </r>
       <r>    10.1927     0.0000    16.0000 </r>
       <r>    10.3337     0.0000    16.0000 </r>
       <r>    10.4747     0.0000    16.0000 </r>
       <r>    10.6157     0.0000    16.0000 </r>
       <r>    10.7567     0.0000    16.0000 </r>
       <r>    10.8977     0.0000    16.0000 </r>
       <r>    11.0387     0.0000    16.0000 </r>
       <r>    11.1797     0.0000    16.0000 </r>
       <r>    11.3207     0.0000    16.0000 </r>
       <r>    11.4617     0.0000    16.0000 </r>
       <r>    11.6027     0.0000    16.0000 </r>
       <r>    11.7437     0.0000    16.0000 </r>
       <r>    11.8847     0.0000    16.0000 </r>
       <r>    12.0257     0.0000    16.0000 </r>
       <r>    12.1667     0.0000    16.0000 </r>
       <r>    12.3077     0.0000    16.0000 </r>
       <r>    12.4487     0.4417    16.0623 </r>
       <r>    12.5896    13.5039    17.9663 </r>
       <r>    12.7306     0.2390    18.0000 </r>
       <r>    12.8716     0.0000    18.0000 </r>
       <r>    13.0126     0.0000    18.0000 </r>
       <r>    13.1536     0.0000    18.0000 </r>
       <r>    13.2946     0.0000    18.0000 </r>
       <r>    13.4356     0.0000    18.0000 </r>
       <r>    13.5766     0.0000    18.0000 </r>
       <r>    13.7176     0.0000    18.0000 </r>
       <r>    13.8586     0.0000    18.0000 </r>
       <r>    13.9996     0.0000    18.0000 </r>
       <r>    14.1406     0.0000    18.0000 </r>
       <r>    14.2816     0.0000    18.0000 </r>
       <r>    14.4226     0.0000    18.0000 </r>
       <r>    14.5636     0.0000    18.0000 </r>
       <r>    14.7046     0.0000    18.0000 </r>
       <r>    14.8456     0.0000    18.0000 </r>
       <r>    14.9866     0.0007    18.0001 </r>
       <r>    15.1276    12.6646    19.7858 </r>
       <r>    15.2686    15.7015    21.9997 </r>
       <r>    15.4096     0.0023    22.0000 </r>
       <r>    15.5506     0.0000    22.0000 </r>
       <r>    15.6916     0.0000    22.0000 </r>
       <r>    15.8326     0.0000    22.0000 </r>
       <r>    15.9736     0.0000    22.0000 </r>
       <r>    16.1146     0.0000    22.0000 </r>
       <r>    16.2556     0.0000    22.0000 </r>
       <r>    16.3966     0.0000    22.0000 </r>
       <r>    16.5376     0.0000    22.0000 </r>
       <r>    16.6786     0.0000    22.0000 </r>
       <r>    16.8196     0.0000    22.0000 </r>
       <r>    16.9606     0.0000    22.0000 </r>
       <r>    17.1016     0.0000    22.0000 </r>
       <r>    17.2426     0.0000    22.0000 </r>
       <r>    17.3836     0.0000    22.0000 </r>
       <r>    17.5246     0.0000    22.0000 </r>
       <r>    17.6656     0.0000    22.0000 </r>
       <r>    17.8066     0.0000    22.0000 </r>
       <r>    17.9476     0.0000    22.0000 </r>
       <r>    18.0886     0.0000    22.0000 </r>
       <r>    18.2296     0.0000    22.0000 </r>
       <r>    18.3706     0.0000    22.0000 </r>
       <r>    18.5116     0.0000    22.0000 </r>
       <r>    18.6526     0.0000    22.0000 </r>
       <r>    18.7936     0.0000    22.0000 </r>
       <r>    18.9346     0.0000    22.0000 </r>
       <r>    19.0756     0.0000    22.0000 </r>
       <r>    19.2166     0.0000    22.0000 </r>
       <r>    19.3576     0.0000    22.0000 </r>
       <r>    19.4986     0.0000    22.0000 </r>
       <r>    19.6396     0.0000    22.0000 </r>
       <r>    19.7806     0.0000    22.0000 </r>
       <r>    19.9216     0.0000    22.0000 </r>
       <r>    20.0626     0.0000    22.0000 </r>
       <r>    20.2036     1.0426    22.1470 </r>
       <r>    20.3446    13.0628    23.9888 </r>
       <r>    20.4856     0.0791    24.0000 </r>
       <r>    20.6266     0.0000    24.0000 </r>
       <r>    20.7676     0.0000    24.0000 </r>
       <r>    20.9086     0.0000    24.0000 </r>
       <r>    21.0496     0.0000    24.0000 </r>
       <r>    21.1906     0.0000    24.0000 </r>
       <r>    21.3316     0.0000    24.0000 </r>
       <r>    21.4726     0.0000    24.0000 </r>
       <r>    21.6136     0.0000    24.0000 </r>
       <r>    21.7546     0.0000    24.0000 </r>
       <r>    21.8956     0.0000    24.0000 </r>
       <r>    22.0366     0.0000    24.0000 </r>
       <r>    22.1775     0.0000    24.0000 </r>
      </set>
     </set>
    </array>
   </total>
  </dos>
 </calculation>
 <structure name="finalpos" >
  <crystal>
   <varray name="basis" >
    <v>       2.80969200       0.00000000       0.00000000 </v>
    <v>       0.00000000       2.80969200       0.00000000 </v>
    <v>       0.00000000       0.00000000       2.80969200 </v>
   </varray>
   <i name="volume">     22.18074580 </i>
   <varray name="rec_basis" >
    <v>       0.35591090       0.00000000       0.00000000 </v>
    <v>       0.00000000       0.35591090       0.00000000 </v>
    <v>       0.00000000       0.00000000       0.35591090 </v>
   </varray>
  </crystal>
  <varray name="positions" >
   <v>       0.78287764       0.78287764       0.21712236 </v>
   <v>       0.21712236       0.21712236       0.21712236 </v>
   <v>       0.28287764       0.71712236       0.71712236 </v>
   <v>       0.71712236       0.28287764       0.71712236 </v>
   <v>       0.00000000       0.00000000       0.00000000 </v>
   <v>       0.50000000       0.50000000       0.50000000 </v>
  </varray>
 </structure>
</modeling>
