    6    6    1    1
  0.3696791E+01  0.2809692E-09  0.2809692E-09  0.2809692E-09  0.5000000E-15
  1.000000000000000E-004
  CAR 
 unknown system                          
     16      1     12
 
  0.0000000E+00  0.0000000E+00  0.0000000E+00  0.1000000E+01
      1        -17.895989   1.000000
      2        -11.110272   1.000000
      3         -2.371128   1.000000
      4         -2.371124   1.000000
      5         -2.371094   1.000000
      6          4.765024   1.000000
      7          4.765028   1.000000
      8          4.765061   1.000000
      9         11.848003   0.000000
     10         14.527811   0.000000
     11         14.527820   0.000000
     12         19.414355   0.000000
