   6   6   0   0
  0.3696791E+01  0.2809692E-09  0.2809692E-09  0.2809692E-09  0.5000000E-15
  1.000000000000000E-004
  CAR 
 unknown system                          
     22.73235941    -21.90338582  301      4.17132868      1.00000000
    -21.903  0.0000E+00  0.0000E+00
    -21.755  0.0000E+00  0.0000E+00
    -21.606  0.0000E+00  0.0000E+00
    -21.457  0.0000E+00  0.0000E+00
    -21.308  0.0000E+00  0.0000E+00
    -21.159  0.0000E+00  0.0000E+00
    -21.011  0.0000E+00  0.0000E+00
    -20.862  0.0000E+00  0.0000E+00
    -20.713  0.0000E+00  0.0000E+00
    -20.564  0.0000E+00  0.0000E+00
    -20.416  0.0000E+00  0.0000E+00
    -20.267  0.0000E+00  0.0000E+00
    -20.118  0.3848E-10  0.5726E-11
    -19.969  0.4978E-01  0.7406E-02
    -19.820  0.1255E+02  0.1874E+01
    -19.672  0.8465E+00  0.2000E+01
    -19.523  0.6417E-07  0.2000E+01
    -19.374  0.0000E+00  0.2000E+01
    -19.225  0.0000E+00  0.2000E+01
    -19.076  0.0000E+00  0.2000E+01
    -18.928  0.0000E+00  0.2000E+01
    -18.779  0.0000E+00  0.2000E+01
    -18.630  0.0000E+00  0.2000E+01
    -18.481  0.0000E+00  0.2000E+01
    -18.333  0.0000E+00  0.2000E+01
    -18.184  0.0000E+00  0.2000E+01
    -18.035  0.0000E+00  0.2000E+01
    -17.886  0.0000E+00  0.2000E+01
    -17.737  0.0000E+00  0.2000E+01
    -17.589  0.0000E+00  0.2000E+01
    -17.440  0.0000E+00  0.2000E+01
    -17.291  0.0000E+00  0.2000E+01
    -17.142  0.0000E+00  0.2000E+01
    -16.993  0.0000E+00  0.2000E+01
    -16.845  0.0000E+00  0.2000E+01
    -16.696  0.0000E+00  0.2000E+01
    -16.547  0.0000E+00  0.2000E+01
    -16.398  0.0000E+00  0.2000E+01
    -16.250  0.0000E+00  0.2000E+01
    -16.101  0.0000E+00  0.2000E+01
    -15.952  0.0000E+00  0.2000E+01
    -15.803  0.0000E+00  0.2000E+01
    -15.654  0.0000E+00  0.2000E+01
    -15.506  0.0000E+00  0.2000E+01
    -15.357  0.0000E+00  0.2000E+01
    -15.208  0.0000E+00  0.2000E+01
    -15.059  0.0000E+00  0.2000E+01
    -14.910  0.0000E+00  0.2000E+01
    -14.762  0.0000E+00  0.2000E+01
    -14.613  0.0000E+00  0.2000E+01
    -14.464  0.0000E+00  0.2000E+01
    -14.315  0.0000E+00  0.2000E+01
    -14.167  0.0000E+00  0.2000E+01
    -14.018  0.0000E+00  0.2000E+01
    -13.869  0.8434E-11  0.2000E+01
    -13.720  0.2582E-01  0.2004E+01
    -13.571  0.1215E+02  0.3812E+01
    -13.423  0.1262E+01  0.4000E+01
    -13.274  0.2206E-06  0.4000E+01
    -13.125  0.0000E+00  0.4000E+01
    -12.976  0.0000E+00  0.4000E+01
    -12.827  0.0000E+00  0.4000E+01
    -12.679  0.0000E+00  0.4000E+01
    -12.530  0.0000E+00  0.4000E+01
    -12.381  0.0000E+00  0.4000E+01
    -12.232  0.0000E+00  0.4000E+01
    -12.084  0.0000E+00  0.4000E+01
    -11.935  0.0000E+00  0.4000E+01
    -11.786  0.0000E+00  0.4000E+01
    -11.637  0.0000E+00  0.4000E+01
    -11.488  0.0000E+00  0.4000E+01
    -11.340  0.0000E+00  0.4000E+01
    -11.191  0.0000E+00  0.4000E+01
    -11.042  0.0000E+00  0.4000E+01
    -10.893  0.0000E+00  0.4000E+01
    -10.744  0.0000E+00  0.4000E+01
    -10.596  0.0000E+00  0.4000E+01
    -10.447  0.0000E+00  0.4000E+01
    -10.298  0.0000E+00  0.4000E+01
    -10.149  0.0000E+00  0.4000E+01
    -10.001  0.0000E+00  0.4000E+01
     -9.852  0.0000E+00  0.4000E+01
     -9.703  0.0000E+00  0.4000E+01
     -9.554  0.0000E+00  0.4000E+01
     -9.405  0.0000E+00  0.4000E+01
     -9.257  0.0000E+00  0.4000E+01
     -9.108  0.0000E+00  0.4000E+01
     -8.959  0.0000E+00  0.4000E+01
     -8.810  0.0000E+00  0.4000E+01
     -8.661  0.0000E+00  0.4000E+01
     -8.513  0.0000E+00  0.4000E+01
     -8.364  0.0000E+00  0.4000E+01
     -8.215  0.0000E+00  0.4000E+01
     -8.066  0.0000E+00  0.4000E+01
     -7.918  0.0000E+00  0.4000E+01
     -7.769  0.0000E+00  0.4000E+01
     -7.620  0.0000E+00  0.4000E+01
     -7.471  0.0000E+00  0.4000E+01
     -7.322  0.0000E+00  0.4000E+01
     -7.174  0.0000E+00  0.4000E+01
     -7.025  0.0000E+00  0.4000E+01
     -6.876  0.0000E+00  0.4000E+01
     -6.727  0.0000E+00  0.4000E+01
     -6.578  0.0000E+00  0.4000E+01
     -6.430  0.0000E+00  0.4000E+01
     -6.281  0.0000E+00  0.4000E+01
     -6.132  0.0000E+00  0.4000E+01
     -5.983  0.0000E+00  0.4000E+01
     -5.835  0.0000E+00  0.4000E+01
     -5.686  0.0000E+00  0.4000E+01
     -5.537  0.0000E+00  0.4000E+01
     -5.388  0.0000E+00  0.4000E+01
     -5.239  0.0000E+00  0.4000E+01
     -5.091  0.0000E+00  0.4000E+01
     -4.942  0.0000E+00  0.4000E+01
     -4.793  0.0000E+00  0.4000E+01
     -4.644  0.0000E+00  0.4000E+01
     -4.495  0.0000E+00  0.4000E+01
     -4.347  0.0000E+00  0.4000E+01
     -4.198  0.0000E+00  0.4000E+01
     -4.049  0.0000E+00  0.4000E+01
     -3.900  0.0000E+00  0.4000E+01
     -3.752  0.1928E-05  0.4000E+01
     -3.603  0.3933E+01  0.4585E+01
     -3.454  0.2293E+02  0.7997E+01
     -3.305  0.2151E-01  0.8000E+01
     -3.156  0.0000E+00  0.8000E+01
     -3.008  0.9426E-04  0.8000E+01
     -2.859  0.5998E+01  0.8892E+01
     -2.710  0.7443E+01  0.1000E+02
     -2.561  0.3118E-03  0.1000E+02
     -2.412  0.0000E+00  0.1000E+02
     -2.264  0.0000E+00  0.1000E+02
     -2.115  0.0000E+00  0.1000E+02
     -1.966  0.0000E+00  0.1000E+02
     -1.817  0.0000E+00  0.1000E+02
     -1.669  0.0000E+00  0.1000E+02
     -1.520  0.0000E+00  0.1000E+02
     -1.371  0.0000E+00  0.1000E+02
     -1.222  0.0000E+00  0.1000E+02
     -1.073  0.0000E+00  0.1000E+02
     -0.925  0.0000E+00  0.1000E+02
     -0.776  0.0000E+00  0.1000E+02
     -0.627  0.0000E+00  0.1000E+02
     -0.478  0.0000E+00  0.1000E+02
     -0.329  0.0000E+00  0.1000E+02
     -0.181  0.0000E+00  0.1000E+02
     -0.032  0.0000E+00  0.1000E+02
      0.117  0.0000E+00  0.1000E+02
      0.266  0.0000E+00  0.1000E+02
      0.414  0.0000E+00  0.1000E+02
      0.563  0.0000E+00  0.1000E+02
      0.712  0.0000E+00  0.1000E+02
      0.861  0.0000E+00  0.1000E+02
      1.010  0.0000E+00  0.1000E+02
      1.158  0.0000E+00  0.1000E+02
      1.307  0.0000E+00  0.1000E+02
      1.456  0.0000E+00  0.1000E+02
      1.605  0.0000E+00  0.1000E+02
      1.754  0.0000E+00  0.1000E+02
      1.902  0.0000E+00  0.1000E+02
      2.051  0.0000E+00  0.1000E+02
      2.200  0.0000E+00  0.1000E+02
      2.349  0.0000E+00  0.1000E+02
      2.497  0.0000E+00  0.1000E+02
      2.646  0.0000E+00  0.1000E+02
      2.795  0.0000E+00  0.1000E+02
      2.944  0.0000E+00  0.1000E+02
      3.093  0.0000E+00  0.1000E+02
      3.241  0.0000E+00  0.1000E+02
      3.390  0.0000E+00  0.1000E+02
      3.539  0.1900E-10  0.1000E+02
      3.688  0.3679E-01  0.1001E+02
      3.837  0.1257E+02  0.1188E+02
      3.985  0.2665E+02  0.1584E+02
      4.134  0.1065E+01  0.1600E+02
      4.283  0.3323E-07  0.1600E+02
      4.432  0.0000E+00  0.1600E+02
      4.580  0.0000E+00  0.1600E+02
      4.729  0.0000E+00  0.1600E+02
      4.878  0.0000E+00  0.1600E+02
      5.027  0.0000E+00  0.1600E+02
      5.176  0.0000E+00  0.1600E+02
      5.324  0.0000E+00  0.1600E+02
      5.473  0.0000E+00  0.1600E+02
      5.622  0.0000E+00  0.1600E+02
      5.771  0.0000E+00  0.1600E+02
      5.920  0.0000E+00  0.1600E+02
      6.068  0.0000E+00  0.1600E+02
      6.217  0.0000E+00  0.1600E+02
      6.366  0.0000E+00  0.1600E+02
      6.515  0.0000E+00  0.1600E+02
      6.663  0.0000E+00  0.1600E+02
      6.812  0.0000E+00  0.1600E+02
      6.961  0.0000E+00  0.1600E+02
      7.110  0.0000E+00  0.1600E+02
      7.259  0.0000E+00  0.1600E+02
      7.407  0.0000E+00  0.1600E+02
      7.556  0.0000E+00  0.1600E+02
      7.705  0.0000E+00  0.1600E+02
      7.854  0.0000E+00  0.1600E+02
      8.003  0.0000E+00  0.1600E+02
      8.151  0.0000E+00  0.1600E+02
      8.300  0.0000E+00  0.1600E+02
      8.449  0.0000E+00  0.1600E+02
      8.598  0.0000E+00  0.1600E+02
      8.746  0.0000E+00  0.1600E+02
      8.895  0.0000E+00  0.1600E+02
      9.044  0.0000E+00  0.1600E+02
      9.193  0.0000E+00  0.1600E+02
      9.342  0.0000E+00  0.1600E+02
      9.490  0.0000E+00  0.1600E+02
      9.639  0.0000E+00  0.1600E+02
      9.788  0.0000E+00  0.1600E+02
      9.937  0.0000E+00  0.1600E+02
     10.086  0.0000E+00  0.1600E+02
     10.234  0.0000E+00  0.1600E+02
     10.383  0.0000E+00  0.1600E+02
     10.532  0.0000E+00  0.1600E+02
     10.681  0.0000E+00  0.1600E+02
     10.829  0.0000E+00  0.1600E+02
     10.978  0.0000E+00  0.1600E+02
     11.127  0.0000E+00  0.1600E+02
     11.276  0.0000E+00  0.1600E+02
     11.425  0.0000E+00  0.1600E+02
     11.573  0.0000E+00  0.1600E+02
     11.722  0.0000E+00  0.1600E+02
     11.871  0.0000E+00  0.1600E+02
     12.020  0.5559E-08  0.1600E+02
     12.169  0.3592E+00  0.1605E+02
     12.317  0.1293E+02  0.1798E+02
     12.466  0.1532E+00  0.1800E+02
     12.615  0.5954E-09  0.1800E+02
     12.764  0.0000E+00  0.1800E+02
     12.912  0.0000E+00  0.1800E+02
     13.061  0.0000E+00  0.1800E+02
     13.210  0.0000E+00  0.1800E+02
     13.359  0.0000E+00  0.1800E+02
     13.508  0.0000E+00  0.1800E+02
     13.656  0.0000E+00  0.1800E+02
     13.805  0.0000E+00  0.1800E+02
     13.954  0.0000E+00  0.1800E+02
     14.103  0.0000E+00  0.1800E+02
     14.252  0.0000E+00  0.1800E+02
     14.400  0.2507E-12  0.1800E+02
     14.549  0.6437E-02  0.1800E+02
     14.698  0.2002E+02  0.2098E+02
     14.847  0.6862E+01  0.2200E+02
     14.995  0.2004E-04  0.2200E+02
     15.144  0.0000E+00  0.2200E+02
     15.293  0.0000E+00  0.2200E+02
     15.442  0.0000E+00  0.2200E+02
     15.591  0.0000E+00  0.2200E+02
     15.739  0.0000E+00  0.2200E+02
     15.888  0.0000E+00  0.2200E+02
     16.037  0.0000E+00  0.2200E+02
     16.186  0.0000E+00  0.2200E+02
     16.335  0.0000E+00  0.2200E+02
     16.483  0.0000E+00  0.2200E+02
     16.632  0.0000E+00  0.2200E+02
     16.781  0.0000E+00  0.2200E+02
     16.930  0.0000E+00  0.2200E+02
     17.078  0.0000E+00  0.2200E+02
     17.227  0.0000E+00  0.2200E+02
     17.376  0.0000E+00  0.2200E+02
     17.525  0.0000E+00  0.2200E+02
     17.674  0.0000E+00  0.2200E+02
     17.822  0.0000E+00  0.2200E+02
     17.971  0.0000E+00  0.2200E+02
     18.120  0.0000E+00  0.2200E+02
     18.269  0.0000E+00  0.2200E+02
     18.418  0.0000E+00  0.2200E+02
     18.566  0.0000E+00  0.2200E+02
     18.715  0.0000E+00  0.2200E+02
     18.864  0.0000E+00  0.2200E+02
     19.013  0.0000E+00  0.2200E+02
     19.161  0.0000E+00  0.2200E+02
     19.310  0.0000E+00  0.2200E+02
     19.459  0.0000E+00  0.2200E+02
     19.608  0.0000E+00  0.2200E+02
     19.757  0.0000E+00  0.2200E+02
     19.905  0.0000E+00  0.2200E+02
     20.054  0.0000E+00  0.2200E+02
     20.203  0.0000E+00  0.2200E+02
     20.352  0.0000E+00  0.2200E+02
     20.501  0.6417E-07  0.2200E+02
     20.649  0.8465E+00  0.2213E+02
     20.798  0.1255E+02  0.2399E+02
     20.947  0.4978E-01  0.2400E+02
     21.096  0.3849E-10  0.2400E+02
     21.245  0.0000E+00  0.2400E+02
     21.393  0.0000E+00  0.2400E+02
     21.542  0.0000E+00  0.2400E+02
     21.691  0.0000E+00  0.2400E+02
     21.840  0.0000E+00  0.2400E+02
     21.988  0.0000E+00  0.2400E+02
     22.137  0.0000E+00  0.2400E+02
     22.286  0.0000E+00  0.2400E+02
     22.435  0.0000E+00  0.2400E+02
     22.584  0.0000E+00  0.2400E+02
     22.732  0.0000E+00  0.2400E+02
