 vasp.6.4.3 19Mar24 (build Jun 21 2025 18:38:16) complex                        
  
 executed on             LinuxIFC date 2025.06.22  19:16:59
 running    1 mpi-ranks, on    1 nodes
 distrk:  each k-point on    1 cores,    1 groups
 distr:  one band on NCORE=   1 cores,    1 groups


--------------------------------------------------------------------------------------------------------


 INCAR:
   PREC = A
   ENCUT = 1500
   ISYM = 0
   ALGO = fast
   EDIFF = 1.000000e-06
   LREAL = .FALSE.
   NPAR = 2
   KPAR = 1
   NELMIN = 4
   ISIF = 2
   ISMEAR = 0
   SIGMA = 0.050000
   IBRION = -1
   NSW = 0
   LWAVE = F
   LCHARG = F
   PSTRESS = 0
   LASPH = T
   METAGGA = SCAN

 POTCAR:    PAW_PBE H 15Jun2001                   
 POTCAR:    PAW_PBE O 08Apr2002                   
 -----------------------------------------------------------------------------
|                                                                             |
|           W    W    AA    RRRRR   N    N  II  N    N   GGGG   !!!           |
|           W    W   A  A   R    R  NN   N  II  NN   N  G    G  !!!           |
|           W    W  A    A  R    R  N N  N  II  N N  N  G       !!!           |
|           W WW W  AAAAAA  RRRRR   N  N N  II  N  N N  G  GGG   !            |
|           WW  WW  A    A  R   R   N   NN  II  N   NN  G    G                |
|           W    W  A    A  R    R  N    N  II  N    N   GGGG   !!!           |
|                                                                             |
|     The value NPAR = 2 specified in the INCAR file was overwritten,         |
|     because it was not compatible with the 1 processes available:           |
|     NPAR = 1                                                                |
|     was used instead, please check that this makes sense for your           |
|     machine.                                                                |
|                                                                             |
 -----------------------------------------------------------------------------

 POTCAR:    PAW_PBE H 15Jun2001                   
   SHA256 =  030f79b5d3ab3cf0e668861823c8fb652ff669f3e15e46930bd03bfd63a607b6 H/POTCAR              
   COPYR  = (c) Copyright 15Jun2001 Georg Kresse                                                    
   COPYR  = This file is part of the software VASP. Any use, copying, and all other rights are regul
   COPYR  = If you do not have a valid VASP license, you may not use, copy or distribute this file. 
   VRHFIN =H: ultrasoft test                                                                        
   LEXCH  = PE                                                                                      
   EATOM  =    12.4884 eV,    0.9179 Ry                                                             
                                                                                                    
   TITEL  = PAW_PBE H 15Jun2001                                                                     
   LULTRA =        F    use ultrasoft PP ?                                                          
   IUNSCR =        0    unscreen: 0-lin 1-nonlin 2-no                                               
   RPACOR =    0.000    partial core radius                                                         
   POMASS =    1.000; ZVAL   =    1.000    mass and valenz                                          
   RCORE  =    1.100    outmost cutoff radius                                                       
   RWIGS  =    0.700; RWIGS  =    0.370    wigner-seitz radius (au A)                               
   ENMAX  =  250.000; ENMIN  =  200.000 eV                                                          
   RCLOC  =    0.701    cutoff for local pot                                                        
   LCOR   =        T    correct aug charges                                                         
   LPAW   =        T    paw PP                                                                      
   EAUG   =  400.000                                                                                
   RMAX   =    1.123    core radius for proj-oper                                                   
   RAUG   =    1.200    factor for augmentation sphere                                              
   RDEP   =    1.112    radius for radial grids                                                     
   RDEPT  =    0.926    core radius for aug-charge                                                  
                                                                                                    
   Atomic configuration                                                                             
    2 entries                                                                                       
     n  l   j            E        occ.                                                              
     1  0  0.50        -6.4927   1.0000                                                             
     2  1  0.50        -3.4015   0.0000                                                             
   Description                                                                                      
     l       E           TYP  RCUT    TYP  RCUT                                                     
     0     -6.4927494     23  1.100                                                                 
     0      6.8029130     23  1.100                                                                 
     1     -4.0817478     23  1.100                                                                 
  local pseudopotential read in
  atomic valenz-charges read in
  non local Contribution for L=           0  read in
    real space projection operators read in
  non local Contribution for L=           0  read in
    real space projection operators read in
  non local Contribution for L=           1  read in
    real space projection operators read in
    PAW grid and wavefunctions read in
 
   number of l-projection  operators is LMAX  =           3
   number of lm-projection operators is LMMAX =           5
 
 POTCAR:    PAW_PBE O 08Apr2002                   
   SHA256 =  818f92134a0a090dccd8ba1447fa70422a3b330e708bb4f08108d8ae51209ddf O/POTCAR              
   COPYR  = (c) Copyright 08Apr2002 Georg Kresse                                                    
   COPYR  = This file is part of the software VASP. Any use, copying, and all other rights are regul
   COPYR  = If you do not have a valid VASP license, you may not use, copy or distribute this file. 
   VRHFIN =O: s2p4                                                                                  
   LEXCH  = PE                                                                                      
   EATOM  =   432.3788 eV,   31.7789 Ry                                                             
                                                                                                    
   TITEL  = PAW_PBE O 08Apr2002                                                                     
   LULTRA =        F    use ultrasoft PP ?                                                          
   IUNSCR =        1    unscreen: 0-lin 1-nonlin 2-no                                               
   RPACOR =    1.200    partial core radius                                                         
   POMASS =   16.000; ZVAL   =    6.000    mass and valenz                                          
   RCORE  =    1.520    outmost cutoff radius                                                       
   RWIGS  =    1.550; RWIGS  =    0.820    wigner-seitz radius (au A)                               
   ENMAX  =  400.000; ENMIN  =  300.000 eV                                                          
   ICORE  =        2    local potential                                                             
   LCOR   =        T    correct aug charges                                                         
   LPAW   =        T    paw PP                                                                      
   EAUG   =  605.392                                                                                
   DEXC   =    0.000                                                                                
   RMAX   =    1.553    core radius for proj-oper                                                   
   RAUG   =    1.300    factor for augmentation sphere                                              
   RDEP   =    1.550    radius for radial grids                                                     
   RDEPT  =    1.329    core radius for aug-charge                                                  
                                                                                                    
   Atomic configuration                                                                             
    4 entries                                                                                       
     n  l   j            E        occ.                                                              
     1  0  0.50      -514.6923   2.0000                                                             
     2  0  0.50       -23.9615   2.0000                                                             
     2  1  0.50        -9.0305   4.0000                                                             
     3  2  1.50        -9.5241   0.0000                                                             
   Description                                                                                      
     l       E           TYP  RCUT    TYP  RCUT                                                     
     0    -23.9615318     23  1.200                                                                 
     0     -9.5240782     23  1.200                                                                 
     1     -9.0304911     23  1.520                                                                 
     1      8.1634956     23  1.520                                                                 
     2     -9.5240782      7  1.500                                                                 
  local pseudopotential read in
  partial core-charges read in
  partial kinetic energy density read in
  kinetic energy density of atom read in
  atomic valenz-charges read in
  non local Contribution for L=           0  read in
    real space projection operators read in
  non local Contribution for L=           0  read in
    real space projection operators read in
  non local Contribution for L=           1  read in
    real space projection operators read in
  non local Contribution for L=           1  read in
    real space projection operators read in
    PAW grid and wavefunctions read in
 
   number of l-projection  operators is LMAX  =           4
   number of lm-projection operators is LMMAX =           8
 
 -----------------------------------------------------------------------------
|                                                                             |
|               ----> ADVICE to this user running VASP <----                  |
|                                                                             |
|     You enforced a specific xc type in the INCAR file but a different       |
|     type was found in the POTCAR file.                                      |
|     I HOPE YOU KNOW WHAT YOU ARE DOING!                                     |
|                                                                             |
 -----------------------------------------------------------------------------

  PAW_PBE H 15Jun2001                   :
 energy of atom  1       EATOM=  -12.4884
 kinetic energy error for atom=    0.0000 (will be added to EATOM!!)
  PAW_PBE O 08Apr2002                   :
 energy of atom  2       EATOM= -432.3788
 kinetic energy error for atom=    0.0005 (will be added to EATOM!!)
 
 
 POSCAR: H  O
  positions in cartesian coordinates
  No initial velocities read in


 exchange-correlation table for SCAN
   RHO(1)=    0.500       N(1)  =     2000
   RHO(2)=  100.500       N(2)  =     4000
 


--------------------------------------------------------------------------------------------------------


 ion  position               nearest neighbor table
   1  0.783  0.783  0.217-   5 1.06   6 1.38
   2  0.217  0.217  0.217-   5 1.06   6 1.38
   3  0.283  0.717  0.717-   6 1.06   5 1.38
   4  0.717  0.283  0.717-   6 1.06   5 1.38
   5  0.000  0.000  0.000-   1 1.06   2 1.06   3 1.38   4 1.38
   6  0.500  0.500  0.500-   3 1.06   4 1.06   1 1.38   2 1.38
 

IMPORTANT INFORMATION: All symmetrisations will be switched off!
NOSYMM: (Re-)initialisation of all symmetry stuff for point group C_1.


----------------------------------------------------------------------------------------

                                     Primitive cell                                     

  volume of cell :      22.1807

  direct lattice vectors                    reciprocal lattice vectors
     2.809692000  0.000000000  0.000000000     0.355910897  0.000000000  0.000000000
     0.000000000  2.809692000  0.000000000     0.000000000  0.355910897  0.000000000
     0.000000000  0.000000000  2.809692000     0.000000000  0.000000000  0.355910897

  length of vectors
     2.809692000  2.809692000  2.809692000     0.355910897  0.355910897  0.355910897

  position of ions in fractional coordinates (direct lattice)
     0.782877640  0.782877640  0.217122360
     0.217122360  0.217122360  0.217122360
     0.282877640  0.717122360  0.717122360
     0.717122360  0.282877640  0.717122360
     0.000000000  0.000000000  0.000000000
     0.500000000  0.500000000  0.500000000

  ion indices of the primitive-cell ions
   primitive index   ion index
                 1           1
                 2           2
                 3           3
                 4           4
                 5           5
                 6           6

----------------------------------------------------------------------------------------

 
 
 KPOINTS: Gamma-point                             

Automatic generation of k-mesh.
 Grid dimensions read from file:
 generate k-points for:    1    1    1

 Generating k-lattice:

  Cartesian coordinates                     Fractional coordinates (reciprocal lattice)
     0.355910897  0.000000000  0.000000000     1.000000000  0.000000000  0.000000000
     0.000000000  0.355910897  0.000000000     0.000000000  1.000000000  0.000000000
     0.000000000  0.000000000  0.355910897     0.000000000  0.000000000  1.000000000

  Length of vectors
     0.355910897  0.355910897  0.355910897

  Shift w.r.t. Gamma in fractional coordinates (k-lattice)
     0.000000000  0.000000000  0.000000000

 
 Subroutine IBZKPT returns following result:
 ===========================================
 
 Found      1 irreducible k-points:
 
 Following reciprocal coordinates:
            Coordinates               Weight
  0.000000  0.000000  0.000000      1.000000
 
 Following cartesian coordinates:
            Coordinates               Weight
  0.000000  0.000000  0.000000      1.000000
 


--------------------------------------------------------------------------------------------------------




 Dimension of arrays:
   k-points           NKPTS =      1   k-points in BZ     NKDIM =      1   number of bands    NBANDS=     12
   number of dos      NEDOS =    301   number of ions     NIONS =      6
   non local maximal  LDIM  =      4   non local SUM 2l+1 LMDIM =      8
   total plane-waves  NPLWV =  46656
   max r-space proj   IRMAX =      1   max aug-charges    IRDMAX=  27486
   dimension x,y,z NGX =    36 NGY =   36 NGZ =   36
   dimension x,y,z NGXF=    72 NGYF=   72 NGZF=   72
   support grid    NGXF=    72 NGYF=   72 NGZF=   72
   ions per type =               4   2
   NGX,Y,Z   is equivalent  to a cutoff of  21.30, 21.30, 21.30 a.u.
   NGXF,Y,Z  is equivalent  to a cutoff of  42.60, 42.60, 42.60 a.u.

 SYSTEM =  unknown system                          
 POSCAR =  H  O                                    

 Startparameter for this run:
   NWRITE =      2    write-flag & timer
   PREC   = a         normal or accurate (medium, high low for compatibility)
   ISTART =      0    job   : 0-new  1-cont  2-samecut
   ICHARG =      2    charge: 1-file 2-atom 10-const
   ISPIN  =      1    spin polarized calculation?
   LNONCOLLINEAR =      F non collinear calculations
   LSORBIT =      F    spin-orbit coupling
   INIWAV =      1    electr: 0-lowe 1-rand  2-diag
   LASPH  =      T    aspherical Exc in radial PAW
 Electronic Relaxation 1
   ENCUT  = 1500.0 eV 110.25 Ry   10.50 a.u.   8.87  8.87  8.87*2*pi/ulx,y,z
   ENINI  = 1500.0     initial cutoff
   ENAUG  =  605.4 eV  augmentation charge cutoff
   NELM   =     60;   NELMIN=  4; NELMDL= -5     # of ELM steps 
   EDIFF  = 0.1E-05   stopping-criterion for ELM
   LREAL  =      F    real-space projection
   NLSPLINE    = F    spline interpolate recip. space projectors
   LCOMPAT=      F    compatible to vasp.4.4
   GGA_COMPAT  = T    GGA compatible to vasp.4.4-vasp.4.6
   LMAXPAW     = -100 max onsite density
   LMAXMIX     =    2 max onsite mixed and CHGCAR
   VOSKOWN=      0    Vosko Wilk Nusair interpolation
   ROPT   =    0.00000   0.00000
 Ionic relaxation
   EDIFFG = 0.1E-04   stopping-criterion for IOM
   NSW    =      0    number of steps for IOM
   NBLOCK =      1;   KBLOCK =      1    inner block; outer block 
   IBRION =     -1    ionic relax: 0-MD 1-quasi-New 2-CG
   NFREE  =      0    steps in history (QN), initial steepest desc. (CG)
   ISIF   =      2    stress and relaxation
   IWAVPR =     10    prediction:  0-non 1-charg 2-wave 3-comb
   ISYM   =      0    0-nonsym 1-usesym 2-fastsym
   LCORR  =      T    Harris-Foulkes like correction to forces

   POTIM  = 0.5000    time-step for ionic-motion
   TEIN   =    0.0    initial temperature
   TEBEG  =    0.0;   TEEND  =   0.0 temperature during run
   SMASS  =  -3.00    Nose mass-parameter (am)
   estimated Nose-frequenzy (Omega)   =  0.10E-29 period in steps = 0.13E+47 mass=  -0.180E-27a.u.
   SCALEE = 1.0000    scale energy and forces
   NPACO  =    256;   APACO  = 10.0  distance and # of slots for P.C.
   PSTRESS=    0.0 pullay stress

  Mass of Ions in am
   POMASS =   1.00 16.00
  Ionic Valenz
   ZVAL   =   1.00  6.00
  Atomic Wigner-Seitz radii
   RWIGS  =  -1.00 -1.00
  virtual crystal weights 
   VCA    =   1.00  1.00
   NELECT =      16.0000    total number of electrons
   NUPDOWN=      -1.0000    fix difference up-down

 DOS related values:
   EMIN   =  10.00;   EMAX   =-10.00  energy-range for DOS
   EFERMI =   0.00;   METHOD = LEGACY      
   ISMEAR =     0;   SIGMA  =   0.05  broadening in eV -4-tet -1-fermi 0-gaus

 Electronic relaxation 2 (details)
   IALGO  =     68    algorithm
   LDIAG  =      T    sub-space diagonalisation (order eigenvalues)
   LSUBROT=      F    optimize rotation matrix (better conditioning)
   TURBO    =      0    0=normal 1=particle mesh
   IRESTART =      0    0=no restart 2=restart with 2 vectors
   NREBOOT  =      0    no. of reboots
   NMIN     =      0    reboot dimension
   EREF     =   0.00    reference energy to select bands
   IMIX   =      4    mixing-type and parameters
     AMIX     =   0.40;   BMIX     =  1.00
     AMIX_MAG =   1.60;   BMIX_MAG =  1.00
     AMIN     =   0.10
     WC   =   100.;   INIMIX=   1;  MIXPRE=   1;  MAXMIX= -45

 Intra band minimization:
   WEIMIN = 0.0000     energy-eigenvalue tresh-hold
   EBREAK =  0.21E-07  absolut break condition
   DEPER  =   0.30     relativ break condition  

   TIME   =   0.40     timestep for ELM

  volume/ion in A,a.u.               =       3.70        24.95
  Fermi-wavevector in a.u.,A,eV,Ry     =   1.468214  2.774523 29.329442  2.155653
  Thomas-Fermi vector in A             =   2.583739
 
 Write flags
   LWAVE        =      F    write WAVECAR
   LDOWNSAMPLE  =      F    k-point downsampling of WAVECAR
   LCHARG       =      F    write CHGCAR
   LVTOT        =      F    write LOCPOT, total local potential
   LVHAR        =      F    write LOCPOT, Hartree potential only
   WRT_POTENTIAL= false  ! write potential to hdf5 file
   LELF         =      F    write electronic localiz. function (ELF)
   LORBIT       =      0    0 simple, 1 ext, 2 COOP (PROOUT), +10 PAW based schemes


 Dipole corrections
   LMONO      =      F    monopole corrections only (constant potential shift)
   LDIPOL     =      F    correct potential (dipole corrections)
   IDIPOL     =      0    1-x, 2-y, 3-z, 4-all directions 
   EPSILON    =  1.0000000 bulk dielectric constant
   LVACPOTAV  =      F  vacuum potentials using an averaging scheme for the charge density
   VACPOTFLAT =  0.1000000 required flatness to determine vacuum potential
 Exchange correlation treatment:
   METAGGA = SCAN    functional components
   XC_C    = 1    coefficients multiplying the functional components
   LIBXC   =     F    Libxc                    
   VOSKOWN =     0    Vosko Wilk Nusair interpolation
   LHFCALC =     F    Hartree Fock is set to
   LHFONE  =     F    Hartree Fock one center treatment
   AEXX    =    0.0000 exact exchange contribution

 Parameters of functionals:
   SCAN:
     P1 =  0.000000E+00
     P2 =  0.000000E+00
     P3 =  0.000000E+00
 
 Accuracy and mixing parameters for tau-dependent meta-GGA functionals:
   LMAXTAU = 6
   LMIXTAU = F
 
 Van der Waals corrections
   IVDW    =     0    specifies the selected vdW correction

 Linear response parameters
   LEPSILON=     F    determine dielectric tensor
   LRPA    =     F    only Hartree local field effects (RPA)
   LNABLA  =     F    use nabla operator in PAW spheres
   LVEL    =     F    velocity operator in full k-point grid
   CSHIFT  =0.1000    complex shift for real part using Kramers Kronig
   OMEGAMAX=  -1.0    maximum frequency
   DEG_THRESHOLD= 0.2000000E-02 threshold for treating states as degnerate
   RTIME   =   -0.100 relaxation time in fs
  (WPLASMAI=    0.000 imaginary part of plasma frequency in eV, 0.658/RTIME)
   DFIELD  = 0.0000000 0.0000000 0.0000000 field for delta impulse in time
 
  Optional k-point grid parameters
   LKPOINTS_OPT  =     F    use optional k-point grid
   KPOINTS_OPT_MODE=     1    mode for optional k-point grid
 
 Orbital magnetization related:
   ORBITALMAG=     F  switch on orbital magnetization
   LCHIMAG   =     F  perturbation theory with respect to B field
   DQ        =  0.001000  dq finite difference perturbation B field
   LLRAUG    =     F  two centre corrections for induced B field
   LBONE     =     F  B-component reconstruction in AE one-centre
   LVGVCALC  =     T  calculate vGv susceptibility
   LVGVAPPL  =     F  apply vGv susceptibility instead of pGv for G=0

 Random number generation:
   RANDOM_GENERATOR = DEFAULT
   PCG_SEED         = not used


--------------------------------------------------------------------------------------------------------


 Static calculation
 charge density and potential will be updated during run
 non-spin polarized calculation
 RMM-DIIS sequential band-by-band and
  variant of blocked Davidson during initial phase
 perform sub-space diagonalisation
    before iterative eigenvector-optimisation
 modified Broyden-mixing scheme, WC =      100.0
 initial mixing is a Kerker type mixing with AMIX =  0.4000 and BMIX =      1.0000
 Hartree-type preconditioning will be used
 using additional bands            4
 reciprocal scheme for non local part
 use partial core corrections
 calculate Harris-corrections to forces 
   (improved forces if not selfconsistent)
 use gradient corrections 
 use of overlap-Matrix (Vanderbilt PP)
 Gauss-broadening in eV      SIGMA  =   0.05


--------------------------------------------------------------------------------------------------------


  energy-cutoff  :     1500.00
  volume of cell :       22.18
      direct lattice vectors                 reciprocal lattice vectors
     2.809692000  0.000000000  0.000000000     0.355910897  0.000000000  0.000000000
     0.000000000  2.809692000  0.000000000     0.000000000  0.355910897  0.000000000
     0.000000000  0.000000000  2.809692000     0.000000000  0.000000000  0.355910897

  length of vectors
     2.809692000  2.809692000  2.809692000     0.355910897  0.355910897  0.355910897


 
 k-points in units of 2pi/SCALE and weight: Gamma-point                             
   0.00000000  0.00000000  0.00000000       1.000
 
 k-points in reciprocal lattice and weights: Gamma-point                             
   0.00000000  0.00000000  0.00000000       1.000
 
 position of ions in fractional coordinates (direct lattice) 
   0.78287764  0.78287764  0.21712236
   0.21712236  0.21712236  0.21712236
   0.28287764  0.71712236  0.71712236
   0.71712236  0.28287764  0.71712236
   0.00000000  0.00000000  0.00000000
   0.50000000  0.50000000  0.50000000
 
 position of ions in cartesian coordinates  (Angst):
   2.19964504  2.19964504  0.61004696
   0.61004696  0.61004696  0.61004696
   0.79479904  2.01489296  2.01489296
   2.01489296  0.79479904  2.01489296
   0.00000000  0.00000000  0.00000000
   1.40484600  1.40484600  1.40484600
 


--------------------------------------------------------------------------------------------------------


 k-point     1 :   0.0000 0.0000 0.0000  plane waves:    2945

 maximum and minimum number of plane-waves per node :      2945     2945

 maximum number of plane-waves:      2945
 maximum index in each direction: 
   IXMAX=    8   IYMAX=    8   IZMAX=    8
   IXMIN=   -8   IYMIN=   -8   IZMIN=   -8


 serial   3D FFT for wavefunctions
 parallel 3D FFT for charge:
    minimum data exchange during FFTs selected (reduces bandwidth)


 total amount of memory used by VASP MPI-rank0    72073. kBytes
=======================================================================

   base      :      30000. kBytes
   nonl-proj :        659. kBytes
   fftplans  :      13060. kBytes
   grid      :      27764. kBytes
   one-center:         18. kBytes
   wavefun   :        572. kBytes
 
     INWAV:  cpu time      0.0000: real time      0.0000
 Broyden mixing: mesh for mixing (old mesh)
   NGX = 17   NGY = 17   NGZ = 17
  (NGX  = 72   NGY  = 72   NGZ  = 72)
  gives a total of   4913 points

 initial charge density was supplied:
 charge density of overlapping atoms calculated
 number of electron      16.0000000 magnetization 
 keeping initial charge density in first step


--------------------------------------------------------------------------------------------------------


 Maximum index for augmentation-charges        26529 (set IRDMAX)


--------------------------------------------------------------------------------------------------------


 First call to EWALD:  gamma=   0.631
 Maximum number of real-space cells 3x 3x 3
 Maximum number of reciprocal cells 3x 3x 3

    FEWALD:  cpu time      0.0004: real time      0.0004


--------------------------------------- Ionic step        1  -------------------------------------------




--------------------------------------- Iteration      1(   1)  ---------------------------------------


    POTLOK:  cpu time      0.3752: real time      0.3752
    SETDIJ:  cpu time      0.7368: real time      0.7368
     EDDAV:  cpu time      0.0885: real time      0.0885
       DOS:  cpu time      0.0001: real time      0.0001
    --------------------------------------------
      LOOP:  cpu time      1.2006: real time      1.2006

 eigenvalue-minimisations  :    24
 total energy-change (2. order) : 0.1192629E+03  (-0.1955995E+04)
 number of electron      16.0000000 magnetization 
 augmentation part       16.0000000 magnetization 

 Free energy of the ion-electron system (eV)
  ---------------------------------------------------
  alpha Z        PSCENC =        40.44071196
  Ewald energy   TEWEN  =      -757.24489080
  -Hartree energ DENC   =      -179.92324992
  -exchange      EXHF   =         0.00000000
  -V(xc)+E(xc)   XCENC  =        78.39709219
  PAW double counting   =       689.98132605     -696.05709516
  entropy T*S    EENTRO =        -0.00000000
  eigenvalues    EBANDS =        28.95895546
  atomic energy  EATOM  =       914.71008676
  Solvation  Ediel_sol  =         0.00000000
  ---------------------------------------------------
  free energy    TOTEN  =       119.26293654 eV

  energy without entropy =      119.26293654  energy(sigma->0) =      119.26293654


--------------------------------------------------------------------------------------------------------




--------------------------------------- Iteration      1(   2)  ---------------------------------------


     EDDAV:  cpu time      0.0888: real time      0.0890
       DOS:  cpu time      0.0000: real time      0.0000
    --------------------------------------------
      LOOP:  cpu time      0.0888: real time      0.0891

 eigenvalue-minimisations  :    28
 total energy-change (2. order) :-0.1448058E+03  (-0.1198724E+03)
 number of electron      16.0000000 magnetization 
 augmentation part       16.0000000 magnetization 

 Free energy of the ion-electron system (eV)
  ---------------------------------------------------
  alpha Z        PSCENC =        40.44071196
  Ewald energy   TEWEN  =      -757.24489080
  -Hartree energ DENC   =      -179.92324992
  -exchange      EXHF   =         0.00000000
  -V(xc)+E(xc)   XCENC  =        78.39709219
  PAW double counting   =       689.98132605     -696.05709516
  entropy T*S    EENTRO =        -0.00000000
  eigenvalues    EBANDS =      -115.84687645
  atomic energy  EATOM  =       914.71008676
  Solvation  Ediel_sol  =         0.00000000
  ---------------------------------------------------
  free energy    TOTEN  =       -25.54289538 eV

  energy without entropy =      -25.54289538  energy(sigma->0) =      -25.54289538


--------------------------------------------------------------------------------------------------------




--------------------------------------- Iteration      1(   3)  ---------------------------------------


     EDDAV:  cpu time      0.0886: real time      0.0886
       DOS:  cpu time      0.0000: real time      0.0000
    --------------------------------------------
      LOOP:  cpu time      0.0887: real time      0.0887

 eigenvalue-minimisations  :    28
 total energy-change (2. order) :-0.3943727E+01  (-0.3933850E+01)
 number of electron      16.0000000 magnetization 
 augmentation part       16.0000000 magnetization 

 Free energy of the ion-electron system (eV)
  ---------------------------------------------------
  alpha Z        PSCENC =        40.44071196
  Ewald energy   TEWEN  =      -757.24489080
  -Hartree energ DENC   =      -179.92324992
  -exchange      EXHF   =         0.00000000
  -V(xc)+E(xc)   XCENC  =        78.39709219
  PAW double counting   =       689.98132605     -696.05709516
  entropy T*S    EENTRO =        -0.00000000
  eigenvalues    EBANDS =      -119.79060309
  atomic energy  EATOM  =       914.71008676
  Solvation  Ediel_sol  =         0.00000000
  ---------------------------------------------------
  free energy    TOTEN  =       -29.48662202 eV

  energy without entropy =      -29.48662202  energy(sigma->0) =      -29.48662202


--------------------------------------------------------------------------------------------------------




--------------------------------------- Iteration      1(   4)  ---------------------------------------


     EDDAV:  cpu time      0.0816: real time      0.0816
       DOS:  cpu time      0.0000: real time      0.0000
    --------------------------------------------
      LOOP:  cpu time      0.0816: real time      0.0816

 eigenvalue-minimisations  :    24
 total energy-change (2. order) :-0.1924391E-01  (-0.1924367E-01)
 number of electron      16.0000000 magnetization 
 augmentation part       16.0000000 magnetization 

 Free energy of the ion-electron system (eV)
  ---------------------------------------------------
  alpha Z        PSCENC =        40.44071196
  Ewald energy   TEWEN  =      -757.24489080
  -Hartree energ DENC   =      -179.92324992
  -exchange      EXHF   =         0.00000000
  -V(xc)+E(xc)   XCENC  =        78.39709219
  PAW double counting   =       689.98132605     -696.05709516
  entropy T*S    EENTRO =        -0.00000000
  eigenvalues    EBANDS =      -119.80984700
  atomic energy  EATOM  =       914.71008676
  Solvation  Ediel_sol  =         0.00000000
  ---------------------------------------------------
  free energy    TOTEN  =       -29.50586593 eV

  energy without entropy =      -29.50586593  energy(sigma->0) =      -29.50586593


--------------------------------------------------------------------------------------------------------




--------------------------------------- Iteration      1(   5)  ---------------------------------------


     EDDAV:  cpu time      0.0975: real time      0.0975
       DOS:  cpu time      0.0000: real time      0.0000
    CHARGE:  cpu time      0.0212: real time      0.0212
    MIXING:  cpu time      0.0044: real time      0.0044
    --------------------------------------------
      LOOP:  cpu time      0.1232: real time      0.1232

 eigenvalue-minimisations  :    32
 total energy-change (2. order) :-0.2111571E-03  (-0.2111550E-03)
 number of electron      16.0000001 magnetization 
 augmentation part        1.8352424 magnetization 

 Broyden mixing:
  rms(total) = 0.12408E+01    rms(broyden)= 0.12408E+01
  rms(prec ) = 0.36870E+01
  weight for this iteration     100.00

 Free energy of the ion-electron system (eV)
  ---------------------------------------------------
  alpha Z        PSCENC =        40.44071196
  Ewald energy   TEWEN  =      -757.24489080
  -Hartree energ DENC   =      -179.92324992
  -exchange      EXHF   =         0.00000000
  -V(xc)+E(xc)   XCENC  =        78.39709219
  PAW double counting   =       689.98132605     -696.05709516
  entropy T*S    EENTRO =        -0.00000000
  eigenvalues    EBANDS =      -119.81005816
  atomic energy  EATOM  =       914.71008676
  Solvation  Ediel_sol  =         0.00000000
  ---------------------------------------------------
  free energy    TOTEN  =       -29.50607709 eV

  energy without entropy =      -29.50607709  energy(sigma->0) =      -29.50607709


--------------------------------------------------------------------------------------------------------




--------------------------------------- Iteration      1(   6)  ---------------------------------------


    POTLOK:  cpu time      0.3740: real time      0.3740
    SETDIJ:  cpu time      0.7295: real time      0.7295
    EDDIAG:  cpu time      0.0201: real time      0.0201
  RMM-DIIS:  cpu time      0.1190: real time      0.1190
    ORTHCH:  cpu time      0.0002: real time      0.0002
       DOS:  cpu time      0.0000: real time      0.0000
    CHARGE:  cpu time      0.0217: real time      0.0217
    MIXING:  cpu time      0.0047: real time      0.0047
    --------------------------------------------
      LOOP:  cpu time      1.2694: real time      1.2694

 eigenvalue-minimisations  :    24
 total energy-change (2. order) : 0.9102972E+01  (-0.6739387E+00)
 number of electron      16.0000001 magnetization 
 augmentation part        1.7225012 magnetization 

 Broyden mixing:
  rms(total) = 0.49213E+00    rms(broyden)= 0.49213E+00
  rms(prec ) = 0.14156E+01
  weight for this iteration     100.00

 eigenvalues of (default mixing * dielectric matrix)
  average eigenvalue GAMMA=   1.4214
  1.4214

 Free energy of the ion-electron system (eV)
  ---------------------------------------------------
  alpha Z        PSCENC =        40.44071196
  Ewald energy   TEWEN  =      -757.24489080
  -Hartree energ DENC   =      -214.26739076
  -exchange      EXHF   =         0.00000000
  -V(xc)+E(xc)   XCENC  =        84.82528251
  PAW double counting   =       898.90980140     -905.82746250
  entropy T*S    EENTRO =        -0.00000000
  eigenvalues    EBANDS =       -81.94924385
  atomic energy  EATOM  =       914.71008676
  Solvation  Ediel_sol  =         0.00000000
  ---------------------------------------------------
  free energy    TOTEN  =       -20.40310528 eV

  energy without entropy =      -20.40310528  energy(sigma->0) =      -20.40310528


--------------------------------------------------------------------------------------------------------




--------------------------------------- Iteration      1(   7)  ---------------------------------------


    POTLOK:  cpu time      0.3757: real time      0.3757
    SETDIJ:  cpu time      0.7288: real time      0.7287
    EDDIAG:  cpu time      0.0193: real time      0.0193
  RMM-DIIS:  cpu time      0.1168: real time      0.1168
    ORTHCH:  cpu time      0.0002: real time      0.0002
       DOS:  cpu time      0.0000: real time      0.0000
    CHARGE:  cpu time      0.0196: real time      0.0196
    MIXING:  cpu time      0.0042: real time      0.0042
    --------------------------------------------
      LOOP:  cpu time      1.2647: real time      1.2647

 eigenvalue-minimisations  :    24
 total energy-change (2. order) :-0.1533578E-01  (-0.3997876E+00)
 number of electron      16.0000001 magnetization 
 augmentation part        1.6291319 magnetization 

 Broyden mixing:
  rms(total) = 0.29575E+00    rms(broyden)= 0.29575E+00
  rms(prec ) = 0.60234E+00
  weight for this iteration     100.00

 eigenvalues of (default mixing * dielectric matrix)
  average eigenvalue GAMMA=   2.4769
  1.8844  3.0693

 Free energy of the ion-electron system (eV)
  ---------------------------------------------------
  alpha Z        PSCENC =        40.44071196
  Ewald energy   TEWEN  =      -757.24489080
  -Hartree energ DENC   =      -234.06515236
  -exchange      EXHF   =         0.00000000
  -V(xc)+E(xc)   XCENC  =        86.38384989
  PAW double counting   =      1094.39393526    -1101.91234631
  entropy T*S    EENTRO =        -0.00000000
  eigenvalues    EBANDS =       -63.12463546
  atomic energy  EATOM  =       914.71008676
  Solvation  Ediel_sol  =         0.00000000
  ---------------------------------------------------
  free energy    TOTEN  =       -20.41844106 eV

  energy without entropy =      -20.41844106  energy(sigma->0) =      -20.41844106


--------------------------------------------------------------------------------------------------------




--------------------------------------- Iteration      1(   8)  ---------------------------------------


    POTLOK:  cpu time      0.3676: real time      0.3676
    SETDIJ:  cpu time      0.7290: real time      0.7290
    EDDIAG:  cpu time      0.0194: real time      0.0194
  RMM-DIIS:  cpu time      0.1168: real time      0.1168
    ORTHCH:  cpu time      0.0003: real time      0.0003
       DOS:  cpu time      0.0000: real time      0.0000
    CHARGE:  cpu time      0.0191: real time      0.0191
    MIXING:  cpu time      0.0043: real time      0.0043
    --------------------------------------------
      LOOP:  cpu time      1.2564: real time      1.2564

 eigenvalue-minimisations  :    24
 total energy-change (2. order) :-0.2583500E+00  (-0.1499305E+00)
 number of electron      16.0000001 magnetization 
 augmentation part        1.6881122 magnetization 

 Broyden mixing:
  rms(total) = 0.33296E+00    rms(broyden)= 0.33296E+00
  rms(prec ) = 0.82332E+00
  weight for this iteration     100.00

 eigenvalues of (default mixing * dielectric matrix)
  average eigenvalue GAMMA=   1.6681
  2.6470  1.1787  1.1787

 Free energy of the ion-electron system (eV)
  ---------------------------------------------------
  alpha Z        PSCENC =        40.44071196
  Ewald energy   TEWEN  =      -757.24489080
  -Hartree energ DENC   =      -224.61983816
  -exchange      EXHF   =         0.00000000
  -V(xc)+E(xc)   XCENC  =        86.37525995
  PAW double counting   =      1266.80433227    -1274.25744267
  entropy T*S    EENTRO =        -0.00000000
  eigenvalues    EBANDS =       -72.88501031
  atomic energy  EATOM  =       914.71008676
  Solvation  Ediel_sol  =         0.00000000
  ---------------------------------------------------
  free energy    TOTEN  =       -20.67679101 eV

  energy without entropy =      -20.67679101  energy(sigma->0) =      -20.67679101


--------------------------------------------------------------------------------------------------------




--------------------------------------- Iteration      1(   9)  ---------------------------------------


    POTLOK:  cpu time      0.3674: real time      0.3677
    SETDIJ:  cpu time      0.7301: real time      0.7301
    EDDIAG:  cpu time      0.0195: real time      0.0195
  RMM-DIIS:  cpu time      0.1216: real time      0.1216
    ORTHCH:  cpu time      0.0002: real time      0.0002
       DOS:  cpu time      0.0000: real time      0.0000
    CHARGE:  cpu time      0.0223: real time      0.0223
    MIXING:  cpu time      0.0044: real time      0.0044
    --------------------------------------------
      LOOP:  cpu time      1.2655: real time      1.2658

 eigenvalue-minimisations  :    25
 total energy-change (2. order) : 0.2329036E+00  (-0.6476659E-01)
 number of electron      16.0000001 magnetization 
 augmentation part        1.6534727 magnetization 

 Broyden mixing:
  rms(total) = 0.30304E-01    rms(broyden)= 0.30303E-01
  rms(prec ) = 0.70441E-01
  weight for this iteration     100.00

 eigenvalues of (default mixing * dielectric matrix)
  average eigenvalue GAMMA=   1.4550
  2.5829  1.1239  1.1239  0.9893

 Free energy of the ion-electron system (eV)
  ---------------------------------------------------
  alpha Z        PSCENC =        40.44071196
  Ewald energy   TEWEN  =      -757.24489080
  -Hartree energ DENC   =      -233.87514835
  -exchange      EXHF   =         0.00000000
  -V(xc)+E(xc)   XCENC  =        87.00550794
  PAW double counting   =      1246.74182079    -1254.38488802
  entropy T*S    EENTRO =        -0.00000000
  eigenvalues    EBANDS =       -63.83708768
  atomic energy  EATOM  =       914.71008676
  Solvation  Ediel_sol  =         0.00000000
  ---------------------------------------------------
  free energy    TOTEN  =       -20.44388740 eV

  energy without entropy =      -20.44388740  energy(sigma->0) =      -20.44388740


--------------------------------------------------------------------------------------------------------




--------------------------------------- Iteration      1(  10)  ---------------------------------------


    POTLOK:  cpu time      0.3741: real time      0.3741
    SETDIJ:  cpu time      0.7289: real time      0.7289
    EDDIAG:  cpu time      0.0194: real time      0.0194
  RMM-DIIS:  cpu time      0.1169: real time      0.1169
    ORTHCH:  cpu time      0.0002: real time      0.0002
       DOS:  cpu time      0.0000: real time      0.0000
    CHARGE:  cpu time      0.0193: real time      0.0193
    MIXING:  cpu time      0.0043: real time      0.0043
    --------------------------------------------
      LOOP:  cpu time      1.2631: real time      1.2631

 eigenvalue-minimisations  :    24
 total energy-change (2. order) :-0.2476303E-02  (-0.7082627E-02)
 number of electron      16.0000001 magnetization 
 augmentation part        1.6440338 magnetization 

 Broyden mixing:
  rms(total) = 0.20360E-01    rms(broyden)= 0.20360E-01
  rms(prec ) = 0.47835E-01
  weight for this iteration     100.00

 eigenvalues of (default mixing * dielectric matrix)
  average eigenvalue GAMMA=   1.5561
  2.6744  2.2258  1.1357  1.1357  0.6089

 Free energy of the ion-electron system (eV)
  ---------------------------------------------------
  alpha Z        PSCENC =        40.44071196
  Ewald energy   TEWEN  =      -757.24489080
  -Hartree energ DENC   =      -234.46804502
  -exchange      EXHF   =         0.00000000
  -V(xc)+E(xc)   XCENC  =        86.85041076
  PAW double counting   =      1240.97367139    -1248.63529134
  entropy T*S    EENTRO =        -0.00000000
  eigenvalues    EBANDS =       -63.07301740
  atomic energy  EATOM  =       914.71008676
  Solvation  Ediel_sol  =         0.00000000
  ---------------------------------------------------
  free energy    TOTEN  =       -20.44636371 eV

  energy without entropy =      -20.44636371  energy(sigma->0) =      -20.44636371


--------------------------------------------------------------------------------------------------------




--------------------------------------- Iteration      1(  11)  ---------------------------------------


    POTLOK:  cpu time      0.3675: real time      0.3675
    SETDIJ:  cpu time      0.7290: real time      0.7290
    EDDIAG:  cpu time      0.0193: real time      0.0193
  RMM-DIIS:  cpu time      0.1271: real time      0.1271
    ORTHCH:  cpu time      0.0002: real time      0.0002
       DOS:  cpu time      0.0000: real time      0.0000
    CHARGE:  cpu time      0.0192: real time      0.0192
    MIXING:  cpu time      0.0044: real time      0.0044
    --------------------------------------------
      LOOP:  cpu time      1.2667: real time      1.2667

 eigenvalue-minimisations  :    27
 total energy-change (2. order) : 0.3369515E-03  (-0.2930502E-03)
 number of electron      16.0000001 magnetization 
 augmentation part        1.6439331 magnetization 

 Broyden mixing:
  rms(total) = 0.11995E-01    rms(broyden)= 0.11995E-01
  rms(prec ) = 0.30265E-01
  weight for this iteration     100.00

 eigenvalues of (default mixing * dielectric matrix)
  average eigenvalue GAMMA=   1.4771
  2.4852  2.4852  1.1731  1.1731  0.7729  0.7729

 Free energy of the ion-electron system (eV)
  ---------------------------------------------------
  alpha Z        PSCENC =        40.44071196
  Ewald energy   TEWEN  =      -757.24489080
  -Hartree energ DENC   =      -234.14130654
  -exchange      EXHF   =         0.00000000
  -V(xc)+E(xc)   XCENC  =        86.81233085
  PAW double counting   =      1240.66576868    -1248.32892038
  entropy T*S    EENTRO =        -0.00000000
  eigenvalues    EBANDS =       -63.35980729
  atomic energy  EATOM  =       914.71008676
  Solvation  Ediel_sol  =         0.00000000
  ---------------------------------------------------
  free energy    TOTEN  =       -20.44602676 eV

  energy without entropy =      -20.44602676  energy(sigma->0) =      -20.44602676


--------------------------------------------------------------------------------------------------------




--------------------------------------- Iteration      1(  12)  ---------------------------------------


    POTLOK:  cpu time      0.3673: real time      0.3673
    SETDIJ:  cpu time      0.7295: real time      0.7295
    EDDIAG:  cpu time      0.0194: real time      0.0194
  RMM-DIIS:  cpu time      0.1310: real time      0.1310
    ORTHCH:  cpu time      0.0002: real time      0.0002
       DOS:  cpu time      0.0000: real time      0.0000
    CHARGE:  cpu time      0.0192: real time      0.0192
    MIXING:  cpu time      0.0044: real time      0.0044
    --------------------------------------------
      LOOP:  cpu time      1.2711: real time      1.2710

 eigenvalue-minimisations  :    28
 total energy-change (2. order) : 0.2278640E-03  (-0.3760223E-04)
 number of electron      16.0000001 magnetization 
 augmentation part        1.6444538 magnetization 

 Broyden mixing:
  rms(total) = 0.79585E-02    rms(broyden)= 0.79585E-02
  rms(prec ) = 0.19010E-01
  weight for this iteration     100.00

 eigenvalues of (default mixing * dielectric matrix)
  average eigenvalue GAMMA=   1.6266
  2.9300  2.5756  1.9423  1.1072  1.1072  1.0616  0.6620

 Free energy of the ion-electron system (eV)
  ---------------------------------------------------
  alpha Z        PSCENC =        40.44071196
  Ewald energy   TEWEN  =      -757.24489080
  -Hartree energ DENC   =      -233.94436698
  -exchange      EXHF   =         0.00000000
  -V(xc)+E(xc)   XCENC  =        86.80018046
  PAW double counting   =      1239.22829762    -1246.88943724
  entropy T*S    EENTRO =        -0.00000000
  eigenvalues    EBANDS =       -63.54638065
  atomic energy  EATOM  =       914.71008676
  Solvation  Ediel_sol  =         0.00000000
  ---------------------------------------------------
  free energy    TOTEN  =       -20.44579889 eV

  energy without entropy =      -20.44579889  energy(sigma->0) =      -20.44579889


--------------------------------------------------------------------------------------------------------




--------------------------------------- Iteration      1(  13)  ---------------------------------------


    POTLOK:  cpu time      0.3674: real time      0.3674
    SETDIJ:  cpu time      0.7295: real time      0.7295
    EDDIAG:  cpu time      0.0193: real time      0.0193
  RMM-DIIS:  cpu time      0.1240: real time      0.1240
    ORTHCH:  cpu time      0.0002: real time      0.0002
       DOS:  cpu time      0.0000: real time      0.0000
    CHARGE:  cpu time      0.0194: real time      0.0194
    MIXING:  cpu time      0.0044: real time      0.0044
    --------------------------------------------
      LOOP:  cpu time      1.2642: real time      1.2642

 eigenvalue-minimisations  :    26
 total energy-change (2. order) : 0.5660706E-04  (-0.4807955E-05)
 number of electron      16.0000001 magnetization 
 augmentation part        1.6446822 magnetization 

 Broyden mixing:
  rms(total) = 0.51515E-02    rms(broyden)= 0.51515E-02
  rms(prec ) = 0.12457E-01
  weight for this iteration     100.00

 eigenvalues of (default mixing * dielectric matrix)
  average eigenvalue GAMMA=   1.5252
  2.7281  2.6088  1.9239  1.1226  1.1226  1.1551  0.7704  0.7704

 Free energy of the ion-electron system (eV)
  ---------------------------------------------------
  alpha Z        PSCENC =        40.44071196
  Ewald energy   TEWEN  =      -757.24489080
  -Hartree energ DENC   =      -233.91372597
  -exchange      EXHF   =         0.00000000
  -V(xc)+E(xc)   XCENC  =        86.80551542
  PAW double counting   =      1239.50473722    -1247.16878241
  entropy T*S    EENTRO =        -0.00000000
  eigenvalues    EBANDS =       -63.57939445
  atomic energy  EATOM  =       914.71008676
  Solvation  Ediel_sol  =         0.00000000
  ---------------------------------------------------
  free energy    TOTEN  =       -20.44574228 eV

  energy without entropy =      -20.44574228  energy(sigma->0) =      -20.44574228


--------------------------------------------------------------------------------------------------------




--------------------------------------- Iteration      1(  14)  ---------------------------------------


    POTLOK:  cpu time      0.3749: real time      0.3749
    SETDIJ:  cpu time      0.7294: real time      0.7294
    EDDIAG:  cpu time      0.0199: real time      0.0199
  RMM-DIIS:  cpu time      0.1247: real time      0.1247
    ORTHCH:  cpu time      0.0002: real time      0.0002
       DOS:  cpu time      0.0000: real time      0.0000
    CHARGE:  cpu time      0.0197: real time      0.0197
    MIXING:  cpu time      0.0050: real time      0.0050
    --------------------------------------------
      LOOP:  cpu time      1.2738: real time      1.2738

 eigenvalue-minimisations  :    26
 total energy-change (2. order) : 0.5535870E-04  (-0.8738916E-05)
 number of electron      16.0000001 magnetization 
 augmentation part        1.6451191 magnetization 

 Broyden mixing:
  rms(total) = 0.21489E-02    rms(broyden)= 0.21489E-02
  rms(prec ) = 0.49480E-02
  weight for this iteration     100.00

 eigenvalues of (default mixing * dielectric matrix)
  average eigenvalue GAMMA=   1.6025
  2.8985  2.5026  2.0585  2.0585  1.2369  0.9884  0.9884  1.0214  0.6696

 Free energy of the ion-electron system (eV)
  ---------------------------------------------------
  alpha Z        PSCENC =        40.44071196
  Ewald energy   TEWEN  =      -757.24489080
  -Hartree energ DENC   =      -233.83192038
  -exchange      EXHF   =         0.00000000
  -V(xc)+E(xc)   XCENC  =        86.80300611
  PAW double counting   =      1239.61665407    -1247.27830298
  entropy T*S    EENTRO =        -0.00000000
  eigenvalues    EBANDS =       -63.66103166
  atomic energy  EATOM  =       914.71008676
  Solvation  Ediel_sol  =         0.00000000
  ---------------------------------------------------
  free energy    TOTEN  =       -20.44568693 eV

  energy without entropy =      -20.44568693  energy(sigma->0) =      -20.44568693


--------------------------------------------------------------------------------------------------------




--------------------------------------- Iteration      1(  15)  ---------------------------------------


    POTLOK:  cpu time      0.3689: real time      0.3689
    SETDIJ:  cpu time      0.7284: real time      0.7284
    EDDIAG:  cpu time      0.0193: real time      0.0193
  RMM-DIIS:  cpu time      0.1234: real time      0.1234
    ORTHCH:  cpu time      0.0002: real time      0.0002
       DOS:  cpu time      0.0000: real time      0.0000
    CHARGE:  cpu time      0.0192: real time      0.0192
    MIXING:  cpu time      0.0047: real time      0.0047
    --------------------------------------------
      LOOP:  cpu time      1.2641: real time      1.2641

 eigenvalue-minimisations  :    26
 total energy-change (2. order) : 0.7259427E-05  (-0.1350311E-05)
 number of electron      16.0000001 magnetization 
 augmentation part        1.6452538 magnetization 

 Broyden mixing:
  rms(total) = 0.10832E-02    rms(broyden)= 0.10832E-02
  rms(prec ) = 0.25608E-02
  weight for this iteration     100.00

 eigenvalues of (default mixing * dielectric matrix)
  average eigenvalue GAMMA=   1.4949
  2.7632  2.5505  2.0160  2.0160  1.2709  1.0315  0.9753  0.9753  0.6753  0.6753

 Free energy of the ion-electron system (eV)
  ---------------------------------------------------
  alpha Z        PSCENC =        40.44071196
  Ewald energy   TEWEN  =      -757.24489080
  -Hartree energ DENC   =      -233.82467542
  -exchange      EXHF   =         0.00000000
  -V(xc)+E(xc)   XCENC  =        86.80582337
  PAW double counting   =      1239.87755862    -1247.53807270
  entropy T*S    EENTRO =        -0.00000000
  eigenvalues    EBANDS =       -63.67222144
  atomic energy  EATOM  =       914.71008676
  Solvation  Ediel_sol  =         0.00000000
  ---------------------------------------------------
  free energy    TOTEN  =       -20.44567967 eV

  energy without entropy =      -20.44567967  energy(sigma->0) =      -20.44567967


--------------------------------------------------------------------------------------------------------




--------------------------------------- Iteration      1(  16)  ---------------------------------------


    POTLOK:  cpu time      0.3671: real time      0.3671
    SETDIJ:  cpu time      0.7280: real time      0.7280
    EDDIAG:  cpu time      0.0194: real time      0.0194
  RMM-DIIS:  cpu time      0.1012: real time      0.1012
    ORTHCH:  cpu time      0.0002: real time      0.0002
       DOS:  cpu time      0.0000: real time      0.0000
    CHARGE:  cpu time      0.0191: real time      0.0191
    MIXING:  cpu time      0.0047: real time      0.0047
    --------------------------------------------
      LOOP:  cpu time      1.2397: real time      1.2397

 eigenvalue-minimisations  :    19
 total energy-change (2. order) : 0.1625000E-05  (-0.1596597E-06)
 number of electron      16.0000001 magnetization 
 augmentation part        1.6452930 magnetization 

 Broyden mixing:
  rms(total) = 0.85382E-03    rms(broyden)= 0.85382E-03
  rms(prec ) = 0.19629E-02
  weight for this iteration     100.00

 eigenvalues of (default mixing * dielectric matrix)
  average eigenvalue GAMMA=   1.5541
  2.7133  2.4997  2.3554  2.3554  1.3140  1.1385  1.1385  0.9611  0.9611  0.9863
  0.6718

 Free energy of the ion-electron system (eV)
  ---------------------------------------------------
  alpha Z        PSCENC =        40.44071196
  Ewald energy   TEWEN  =      -757.24489080
  -Hartree energ DENC   =      -233.81934011
  -exchange      EXHF   =         0.00000000
  -V(xc)+E(xc)   XCENC  =        86.80608694
  PAW double counting   =      1239.87840292    -1247.53868791
  entropy T*S    EENTRO =        -0.00000000
  eigenvalues    EBANDS =       -63.67804779
  atomic energy  EATOM  =       914.71008676
  Solvation  Ediel_sol  =         0.00000000
  ---------------------------------------------------
  free energy    TOTEN  =       -20.44567804 eV

  energy without entropy =      -20.44567804  energy(sigma->0) =      -20.44567804


--------------------------------------------------------------------------------------------------------




--------------------------------------- Iteration      1(  17)  ---------------------------------------


    POTLOK:  cpu time      0.3670: real time      0.3669
    SETDIJ:  cpu time      0.7284: real time      0.7284
    EDDIAG:  cpu time      0.0194: real time      0.0194
  RMM-DIIS:  cpu time      0.0907: real time      0.0907
    ORTHCH:  cpu time      0.0002: real time      0.0002
       DOS:  cpu time      0.0000: real time      0.0000
    CHARGE:  cpu time      0.0192: real time      0.0192
    MIXING:  cpu time      0.0048: real time      0.0048
    --------------------------------------------
      LOOP:  cpu time      1.2297: real time      1.2297

 eigenvalue-minimisations  :    16
 total energy-change (2. order) : 0.2244712E-05  (-0.1342620E-06)
 number of electron      16.0000001 magnetization 
 augmentation part        1.6453408 magnetization 

 Broyden mixing:
  rms(total) = 0.48139E-03    rms(broyden)= 0.48138E-03
  rms(prec ) = 0.11217E-02
  weight for this iteration     100.00

 eigenvalues of (default mixing * dielectric matrix)
  average eigenvalue GAMMA=   1.5650
  3.0856  2.6583  2.3290  2.3290  1.7259  1.0764  1.0764  0.6781  1.0114  0.9527
  0.9289  0.9289

 Free energy of the ion-electron system (eV)
  ---------------------------------------------------
  alpha Z        PSCENC =        40.44071196
  Ewald energy   TEWEN  =      -757.24489080
  -Hartree energ DENC   =      -233.81542840
  -exchange      EXHF   =         0.00000000
  -V(xc)+E(xc)   XCENC  =        86.80651102
  PAW double counting   =      1239.96801600    -1247.62780640
  entropy T*S    EENTRO =        -0.00000000
  eigenvalues    EBANDS =       -63.68287593
  atomic energy  EATOM  =       914.71008676
  Solvation  Ediel_sol  =         0.00000000
  ---------------------------------------------------
  free energy    TOTEN  =       -20.44567580 eV

  energy without entropy =      -20.44567580  energy(sigma->0) =      -20.44567580


--------------------------------------------------------------------------------------------------------




--------------------------------------- Iteration      1(  18)  ---------------------------------------


    POTLOK:  cpu time      0.3673: real time      0.3673
    SETDIJ:  cpu time      0.7290: real time      0.7290
    EDDIAG:  cpu time      0.0194: real time      0.0194
  RMM-DIIS:  cpu time      0.0869: real time      0.0869
    ORTHCH:  cpu time      0.0002: real time      0.0002
       DOS:  cpu time      0.0000: real time      0.0000
    CHARGE:  cpu time      0.0194: real time      0.0194
    MIXING:  cpu time      0.0049: real time      0.0049
    --------------------------------------------
      LOOP:  cpu time      1.2273: real time      1.2273

 eigenvalue-minimisations  :    15
 total energy-change (2. order) : 0.1542151E-05  (-0.7151969E-07)
 number of electron      16.0000001 magnetization 
 augmentation part        1.6453765 magnetization 

 Broyden mixing:
  rms(total) = 0.19010E-03    rms(broyden)= 0.19010E-03
  rms(prec ) = 0.44051E-03
  weight for this iteration     100.00

 eigenvalues of (default mixing * dielectric matrix)
  average eigenvalue GAMMA=   1.5548
  3.0972  2.6514  2.4883  2.4883  1.5575  1.0784  1.0784  1.1195  1.1195  0.6750
  1.0179  0.9206  0.9206

 Free energy of the ion-electron system (eV)
  ---------------------------------------------------
  alpha Z        PSCENC =        40.44071196
  Ewald energy   TEWEN  =      -757.24489080
  -Hartree energ DENC   =      -233.81122547
  -exchange      EXHF   =         0.00000000
  -V(xc)+E(xc)   XCENC  =        86.80678407
  PAW double counting   =      1240.02096907    -1247.68047752
  entropy T*S    EENTRO =        -0.00000000
  eigenvalues    EBANDS =       -63.68763231
  atomic energy  EATOM  =       914.71008676
  Solvation  Ediel_sol  =         0.00000000
  ---------------------------------------------------
  free energy    TOTEN  =       -20.44567425 eV

  energy without entropy =      -20.44567425  energy(sigma->0) =      -20.44567425


--------------------------------------------------------------------------------------------------------




--------------------------------------- Iteration      1(  19)  ---------------------------------------


    POTLOK:  cpu time      0.3674: real time      0.3674
    SETDIJ:  cpu time      0.7294: real time      0.7294
    EDDIAG:  cpu time      0.0193: real time      0.0193
  RMM-DIIS:  cpu time      0.0865: real time      0.0865
    ORTHCH:  cpu time      0.0003: real time      0.0003
       DOS:  cpu time      0.0000: real time      0.0000
    --------------------------------------------
      LOOP:  cpu time      1.2029: real time      1.2029

 eigenvalue-minimisations  :    15
 total energy-change (2. order) : 0.5388719E-06  (-0.1892310E-07)
 number of electron      16.0000001 magnetization 
 augmentation part        1.6453765 magnetization 

 Free energy of the ion-electron system (eV)
  ---------------------------------------------------
  alpha Z        PSCENC =        40.44071196
  Ewald energy   TEWEN  =      -757.24489080
  -Hartree energ DENC   =      -233.80923647
  -exchange      EXHF   =         0.00000000
  -V(xc)+E(xc)   XCENC  =        86.80692780
  PAW double counting   =      1240.03523822    -1247.69466071
  entropy T*S    EENTRO =        -0.00000000
  eigenvalues    EBANDS =       -63.68985048
  atomic energy  EATOM  =       914.71008676
  Solvation  Ediel_sol  =         0.00000000
  ---------------------------------------------------
  free energy    TOTEN  =       -20.44567372 eV

  energy without entropy =      -20.44567372  energy(sigma->0) =      -20.44567372


--------------------------------------------------------------------------------------------------------




 average (electrostatic) potential at core
  the test charge radii are     0.5201  0.7215
  (the norm of the test charge is              1.0000)
       1 -36.4678       2 -36.4675       3 -36.4678       4 -36.4675       5 -72.8757
       6 -72.8757
 
 
 
 E-fermi :   4.1713     XC(G=0): -12.3316     alpha+bet :-11.7316

 val. band max:        3.9233118077   @ k =   0.0000   0.0000   0.0000
 cond. band min:      12.2368496663   @ k =   0.0000   0.0000   0.0000
 fundamental gap:      8.3135378586
 Fermi energy:         4.1713286846

 k-point     1 :       0.0000    0.0000    0.0000
  band No.  band energies     occupation 
      1     -19.8745      2.00000
      2     -13.6180      2.00000
      3      -3.5655      2.00000
      4      -3.5655      2.00000
      5      -2.8540      2.00000
      6       3.7860      2.00000
      7       3.9233      2.00000
      8       3.9233      2.00000
      9      12.2368      0.00000
     10      14.6683      0.00000
     11      14.6803      0.00000
     12      20.7035      0.00000


--------------------------------------------------------------------------------------------------------


 soft charge-density along one line, spin component           1
         0         1         2         3         4         5         6         7         8         9
 total charge-density along one line
 
 pseudopotential strength for first ion, spin component:           1
 -2.235  -3.827  -0.015   0.015  -0.015
 -3.827  -6.465  -0.031   0.031  -0.032
 -0.015  -0.031  -0.367  -0.002   0.002
  0.015   0.031  -0.002  -0.366  -0.002
 -0.015  -0.032   0.002  -0.002  -0.366
 total augmentation occupancy for first ion, spin component:           1
  3.684  -0.853   0.238  -0.237   0.238
 -0.853   0.238  -0.039   0.041  -0.039
  0.238  -0.039   0.080  -0.061   0.060
 -0.237   0.041  -0.061   0.077  -0.061
  0.238  -0.039   0.060  -0.061   0.080


------------------------ aborting loop because EDIFF is reached ----------------------------------------


    CHARGE:  cpu time      0.0082: real time      0.0082
    FORLOC:  cpu time      0.0101: real time      0.0101
    FORNL :  cpu time      0.0210: real time      0.0210
    STRESS:  cpu time      0.4079: real time      0.4079
    FORCOR:  cpu time      0.3645: real time      0.3645
    FORHAR:  cpu time      0.0256: real time      0.0256
    MIXING:  cpu time      0.0058: real time      0.0058
    OFIELD:  cpu time      0.0000: real time      0.0000

  FORCE on cell =-STRESS in cart. coord.  units (eV):
  Direction    XX          YY          ZZ          XY          YZ          ZX
  --------------------------------------------------------------------------------------
  Alpha Z    40.44071    40.44071    40.44071
  Ewald    -252.16859  -252.16859  -252.90806     0.00000     0.00000     0.00000
  Hartree    77.97440    77.97452    77.85791     0.00002    -0.00001     0.00008
  E(xc)     -79.53777   -79.53780   -79.52474    -0.00000     0.00000    -0.00000
  Local     -47.23524   -47.23536   -46.49062    -0.00002     0.00000    -0.00003
  n-local   -65.06421   -65.06388   -65.26132     0.00000    -0.00000     0.00033
  augment    16.74214    16.74210    16.75508    -0.00001     0.00000    -0.00002
  Kinetic   326.29975   326.29922   327.06627    -0.00005     0.00002    -0.00011
  Fock        0.00000     0.00000     0.00000     0.00000     0.00000     0.00000
  -------------------------------------------------------------------------------------
  Total      17.45121    17.45094    17.93523    -0.00006     0.00002     0.00024
  in kB    1260.54955  1260.52996  1295.51190    -0.00403     0.00113     0.01735
  external pressure =     1272.20 kB  Pullay stress =        0.00 kB


 VOLUME and BASIS-vectors are now :
 -----------------------------------------------------------------------------
  energy-cutoff  :     1500.00
  volume of cell :       22.18
      direct lattice vectors                 reciprocal lattice vectors
     2.809692000  0.000000000  0.000000000     0.355910897  0.000000000  0.000000000
     0.000000000  2.809692000  0.000000000     0.000000000  0.355910897  0.000000000
     0.000000000  0.000000000  2.809692000     0.000000000  0.000000000  0.355910897

  length of vectors
     2.809692000  2.809692000  2.809692000     0.355910897  0.355910897  0.355910897


 FORCES acting on ions
    electron-ion (+dipol)            ewald-force                    non-local-force                 convergence-correction
 -----------------------------------------------------------------------------------------------
   0.179E+02 0.179E+02 -.172E+02   -.195E+02 -.195E+02 0.189E+02   0.308E+01 0.308E+01 -.299E+01   0.159E-04 0.174E-04 -.380E-04
   -.179E+02 -.179E+02 -.172E+02   0.195E+02 0.195E+02 0.189E+02   -.308E+01 -.308E+01 -.299E+01   -.162E-04 -.168E-04 -.369E-04
   0.179E+02 -.179E+02 -.172E+02   -.195E+02 0.195E+02 0.189E+02   0.308E+01 -.308E+01 -.299E+01   0.210E-04 -.236E-04 -.381E-04
   -.179E+02 0.179E+02 -.172E+02   0.195E+02 -.195E+02 0.189E+02   -.308E+01 0.308E+01 -.299E+01   -.208E-04 0.227E-04 -.374E-04
   0.250E-04 -.620E-03 0.190E+02   -.114E-13 -.111E-13 -.379E+02   0.273E-04 0.967E-04 0.214E+02   -.159E-05 0.248E-04 -.505E-03
   0.500E-04 0.616E-03 0.190E+02   -.367E-14 -.743E-14 -.379E+02   0.223E-04 -.949E-04 0.214E+02   0.274E-05 -.262E-04 -.203E-03
 -----------------------------------------------------------------------------------------------
   0.689E-03 -.708E-05 -.307E+02   -.439E-14 -.427E-14 0.000E+00   -.711E-03 0.141E-05 0.307E+02   0.100E-05 -.172E-05 -.859E-03
 
 
 POSITION                                       TOTAL-FORCE (eV/Angst)
 -----------------------------------------------------------------------------------
      2.19965      2.19965      0.61005         1.428836      1.429173     -1.244291
      0.61005      0.61005      0.61005        -1.428903     -1.428970     -1.244502
      0.79480      2.01489      2.01489         1.428833     -1.429167     -1.244292
      2.01489      0.79480      2.01489        -1.428899      1.428966     -1.244501
      0.00000      0.00000      0.00000         0.000054     -0.000498      2.488821
      1.40485      1.40485      1.40485         0.000079      0.000497      2.488765
 -----------------------------------------------------------------------------------
    total drift:                               -0.000021     -0.000007      0.000465


--------------------------------------------------------------------------------------------------------



  FREE ENERGIE OF THE ION-ELECTRON SYSTEM (eV)
  ---------------------------------------------------
  free  energy   TOTEN  =       -20.44567372 eV

  energy  without entropy=      -20.44567372  energy(sigma->0) =      -20.44567372
 


--------------------------------------------------------------------------------------------------------


    POTLOK:  cpu time      1.0936: real time      1.0936


--------------------------------------------------------------------------------------------------------


     LOOP+:  cpu time     21.8115: real time     21.8130
    4ORBIT:  cpu time      0.0000: real time      0.0000

 total amount of memory used by VASP MPI-rank0    72073. kBytes
=======================================================================

   base      :      30000. kBytes
   nonl-proj :        659. kBytes
   fftplans  :      13060. kBytes
   grid      :      27764. kBytes
   one-center:         18. kBytes
   wavefun   :        572. kBytes
 
  
  
 General timing and accounting informations for this job:
 ========================================================
  
                  Total CPU time used (sec):       22.241
                            User time (sec):       22.006
                          System time (sec):        0.234
                         Elapsed time (sec):       22.674
  
                   Maximum memory used (kb):      220212.
                   Average memory used (kb):          N/A
  
                          Minor page faults:        80820
                          Major page faults:            0
                 Voluntary context switches:         1199
