<?xml version="1.0" encoding="ISO-8859-1"?>
<modeling>
 <generator>
  <i name="program" type="string">vasp </i>
  <i name="version" type="string">6.4.3  </i>
  <i name="subversion" type="string">19Mar24 (build Jun 21 2025 18:38:16) complex                          parallel </i>
  <i name="platform" type="string">LinuxIFC </i>
  <i name="date" type="string">2025 06 22 </i>
  <i name="time" type="string">19:16:59 </i>
 </generator>
 <incar>
  <i type="string" name="PREC">A</i>
  <i type="string" name="ALGO">fast</i>
  <i type="int" name="NELMIN">     4</i>
  <i type="int" name="IBRION">    -1</i>
  <i name="EDIFF">      0.00000100</i>
  <i type="int" name="NSW">     0</i>
  <i type="int" name="ISIF">     2</i>
  <i type="int" name="ISYM">     0</i>
  <i name="ENCUT">   1500.00000000</i>
  <i type="logical" name="LREAL"> F  </i>
  <i type="int" name="ISMEAR">     0</i>
  <i name="SIGMA">      0.05000000</i>
  <i name="PSTRESS">      0.00000000</i>
  <i type="logical" name="LWAVE"> F  </i>
  <i type="logical" name="LCHARG"> F  </i>
  <i type="logical" name="LASPH"> T  </i>
  <i type="string" name="METAGGA">SCAN</i>
 </incar>
 <primitive_cell>
  <structure name="primitive_cell" >
   <crystal>
    <varray name="basis" >
     <v>       2.80969200       0.00000000       0.00000000 </v>
     <v>       0.00000000       2.80969200       0.00000000 </v>
     <v>       0.00000000       0.00000000       2.80969200 </v>
    </varray>
    <i name="volume">     22.18074580 </i>
    <varray name="rec_basis" >
     <v>       0.35591090       0.00000000       0.00000000 </v>
     <v>       0.00000000       0.35591090       0.00000000 </v>
     <v>       0.00000000       0.00000000       0.35591090 </v>
    </varray>
   </crystal>
   <varray name="positions" >
    <v>       0.78287764       0.78287764       0.21712236 </v>
    <v>       0.21712236       0.21712236       0.21712236 </v>
    <v>       0.28287764       0.71712236       0.71712236 </v>
    <v>       0.71712236       0.28287764       0.71712236 </v>
    <v>       0.00000000       0.00000000       0.00000000 </v>
    <v>       0.50000000       0.50000000       0.50000000 </v>
   </varray>
  </structure>
  <varray name="primitive_index" >
   <v type="int" >        1 </v>
   <v type="int" >        2 </v>
   <v type="int" >        3 </v>
   <v type="int" >        4 </v>
   <v type="int" >        5 </v>
   <v type="int" >        6 </v>
  </varray>
 </primitive_cell>
 <kpoints>
  <generation param="Gamma">
   <v type="int" name="divisions">       1        1        1 </v>
   <v name="usershift">      0.00000000       0.00000000       0.00000000 </v>
   <v name="genvec1">      1.00000000       0.00000000       0.00000000 </v>
   <v name="genvec2">      0.00000000       1.00000000       0.00000000 </v>
   <v name="genvec3">      0.00000000       0.00000000       1.00000000 </v>
   <v name="shift">      0.00000000       0.00000000       0.00000000 </v>
  </generation>
  <varray name="kpointlist" >
   <v>       0.00000000       0.00000000       0.00000000 </v>
  </varray>
  <varray name="weights" >
   <v>       1.00000000 </v>
  </varray>
 </kpoints>
 <parameters>
  <separator name="general" >
   <i type="string" name="SYSTEM">unknown system</i>
   <i type="logical" name="LCOMPAT"> F  </i>
  </separator>
  <separator name="electronic" >
   <i type="string" name="PREC">a</i>
   <i name="ENMAX">   1500.00000000</i>
   <i name="ENAUG">    605.39200000</i>
   <i name="EDIFF">      0.00000100</i>
   <i type="int" name="IALGO">    68</i>
   <i type="int" name="IWAVPR">    10</i>
   <i type="int" name="NBANDS">    12</i>
   <i type="int" name="NBANDSLOW">    -1</i>
   <i type="int" name="NBANDSHIGH">    -1</i>
   <i name="NELECT">     16.00000000</i>
   <i type="int" name="TURBO">     0</i>
   <i type="int" name="IRESTART">     0</i>
   <i type="int" name="NREBOOT">     0</i>
   <i type="int" name="NMIN">     0</i>
   <i name="EREF">      0.00000000</i>
   <separator name="electronic smearing" >
    <i type="int" name="ISMEAR">     0</i>
    <i name="SIGMA">      0.05000000</i>
    <i name="KSPACING">      0.50000000</i>
    <i type="logical" name="KGAMMA"> T  </i>
    <i type="logical" name="KBLOWUP"> T  </i>
   </separator>
   <separator name="electronic projectors" >
    <i type="logical" name="LREAL"> F  </i>
    <v name="ROPT">      0.00000000      0.00000000</v>
    <i type="int" name="LMAXPAW">  -100</i>
    <i type="int" name="LMAXMIX">     2</i>
    <i type="logical" name="NLSPLINE"> F  </i>
   </separator>
   <separator name="electronic startup" >
    <i type="int" name="ISTART">     0</i>
    <i type="int" name="ICHARG">     2</i>
    <i type="int" name="INIWAV">     1</i>
   </separator>
   <separator name="electronic spin" >
    <i type="int" name="ISPIN">     1</i>
    <i type="logical" name="LNONCOLLINEAR"> F  </i>
    <v name="MAGMOM">      1.00000000      1.00000000      1.00000000      1.00000000      1.00000000      1.00000000</v>
    <i name="NUPDOWN">     -1.00000000</i>
    <i type="logical" name="LSORBIT"> F  </i>
    <v name="SAXIS">      0.00000000      0.00000000      1.00000000</v>
    <i type="logical" name="LSPIRAL"> F  </i>
    <v name="QSPIRAL">      0.00000000      0.00000000      0.00000000</v>
    <i type="logical" name="LZEROZ"> F  </i>
   </separator>
   <separator name="electronic exchange-correlation" >
    <i type="logical" name="LASPH"> T  </i>
   </separator>
   <separator name="electronic convergence" >
    <i type="int" name="NELM">    60</i>
    <i type="int" name="NELMDL">    -5</i>
    <i type="int" name="NELMIN">     4</i>
    <i name="ENINI">   1500.00000000</i>
    <separator name="electronic convergence detail" >
     <i type="logical" name="LDIAG"> T  </i>
     <i type="logical" name="LSUBROT"> F  </i>
     <i name="WEIMIN">      0.00000000</i>
     <i name="EBREAK">      0.00000002</i>
     <i name="DEPER">      0.30000000</i>
     <i type="int" name="NRMM">     4</i>
     <i name="TIME">      0.40000000</i>
    </separator>
   </separator>
   <separator name="electronic mixer" >
    <i name="AMIX">      0.40000000</i>
    <i name="BMIX">      1.00000000</i>
    <i name="AMIN">      0.10000000</i>
    <i name="AMIX_MAG">      1.60000000</i>
    <i name="BMIX_MAG">      1.00000000</i>
    <separator name="electronic mixer details" >
     <i type="int" name="IMIX">     4</i>
     <i type="logical" name="MIXFIRST"> F  </i>
     <i type="int" name="MAXMIX">   -45</i>
     <i name="WC">    100.00000000</i>
     <i type="int" name="INIMIX">     1</i>
     <i type="int" name="MIXPRE">     1</i>
     <i type="int" name="MREMOVE">     5</i>
    </separator>
   </separator>
   <separator name="electronic dipolcorrection" >
    <i type="logical" name="LDIPOL"> F  </i>
    <i type="logical" name="LMONO"> F  </i>
    <i type="int" name="IDIPOL">     0</i>
    <i name="EPSILON">      1.00000000</i>
    <v name="DIPOL">   -100.00000000   -100.00000000   -100.00000000</v>
    <i name="EFIELD">      0.00000000</i>
    <i type="logical" name="LVACPOTAV"> F  </i>
   </separator>
  </separator>
  <separator name="grids" >
   <i type="int" name="NGX">    36</i>
   <i type="int" name="NGY">    36</i>
   <i type="int" name="NGZ">    36</i>
   <i type="int" name="NGXF">    72</i>
   <i type="int" name="NGYF">    72</i>
   <i type="int" name="NGZF">    72</i>
   <i type="logical" name="ADDGRID"> F  </i>
  </separator>
  <separator name="ionic" >
   <i type="int" name="NSW">     0</i>
   <i type="int" name="IBRION">    -1</i>
   <i type="int" name="MDALGO">     0</i>
   <i type="int" name="ISIF">     2</i>
   <i name="PSTRESS">      0.00000000</i>
   <i name="EDIFFG">      0.00001000</i>
   <i type="int" name="NFREE">     0</i>
   <i name="POTIM">      0.50000000</i>
   <i name="SMASS">     -3.00000000</i>
   <i name="SCALEE">      1.00000000</i>
  </separator>
  <separator name="ionic md" >
   <i name="TEBEG">      0.00010000</i>
   <i name="TEEND">      0.00010000</i>
   <i type="int" name="NBLOCK">     1</i>
   <i type="int" name="KBLOCK">     1</i>
   <i type="int" name="NPACO">   256</i>
   <i name="APACO">     10.00000000</i>
  </separator>
  <separator name="symmetry" >
   <i type="int" name="ISYM">     0</i>
   <i name="SYMPREC">      0.00001000</i>
  </separator>
  <separator name="dos" >
   <i type="int" name="LORBIT">     0</i>
   <v name="RWIGS">     -1.00000000     -1.00000000</v>
   <i type="int" name="NEDOS">   301</i>
   <i name="EMIN">     10.00000000</i>
   <i name="EMAX">    -10.00000000</i>
   <i name="EFERMI">      0.00000000</i>
  </separator>
  <separator name="writing" >
   <i type="int" name="NWRITE">     2</i>
   <i type="logical" name="LWAVE"> F  </i>
   <i type="logical" name="LDOWNSAMPLE"> F  </i>
   <i type="logical" name="LCHARG"> F  </i>
   <i type="logical" name="LPARD"> F  </i>
   <i type="logical" name="LVTOT"> F  </i>
   <i type="logical" name="LVHAR"> F  </i>
   <i type="logical" name="LELF"> F  </i>
   <i type="logical" name="LOPTICS"> F  </i>
   <v name="STM">      0.00000000      0.00000000      0.00000000      0.00000000      0.00000000      0.00000000      0.00000000</v>
  </separator>
  <separator name="performance" >
   <i type="int" name="NPAR">     1</i>
   <i type="int" name="NSIM">     4</i>
   <i type="int" name="NBLK">    -1</i>
   <i type="logical" name="LPLANE"> T  </i>
   <i type="logical" name="LSCALAPACK"> T  </i>
   <i type="logical" name="LSCAAWARE"> F  </i>
   <i type="logical" name="LSCALU"> F  </i>
   <i type="logical" name="LASYNC"> F  </i>
   <i type="logical" name="LORBITALREAL"> F  </i>
  </separator>
  <separator name="miscellaneous" >
   <i type="int" name="IDIOT">     3</i>
   <i type="int" name="PHON_NSTRUCT">    -1</i>
   <i type="logical" name="LMUSIC"> F  </i>
   <v name="POMASS">      1.00000000     16.00000000</v>
   <v name="DARWINR">      0.00000000      0.00000000</v>
   <v name="DARWINV">      1.00000000      1.00000000</v>
   <i type="logical" name="LCORR"> T  </i>
  </separator>
  <i type="logical" name="GGA_COMPAT"> T  </i>
  <i type="logical" name="LBERRY"> F  </i>
  <i type="int" name="ICORELEVEL">     0</i>
  <i type="logical" name="LDAU"> F  </i>
  <i type="int" name="I_CONSTRAINED_M">     0</i>
  <separator name="electronic exchange-correlation" >
   <i type="string" name="METAGGA">SCAN</i>
   <i type="string" name="XC_C">1</i>
   <i type="int" name="VOSKOWN">     0</i>
   <i type="logical" name="LHFCALC"> F  </i>
   <i type="string" name="PRECFOCK"></i>
   <i type="logical" name="LSYMGRAD"> F  </i>
   <i type="logical" name="LHFONE"> F  </i>
   <i type="logical" name="LRHFCALC"> F  </i>
   <i type="logical" name="LTHOMAS"> F  </i>
   <i type="logical" name="LMODELHF"> F  </i>
   <i type="logical" name="LFOCKACE"> F  </i>
   <i name="ENCUT4O">     -1.00000000</i>
   <i type="int" name="EXXOEP">     0</i>
   <i type="int" name="FOURORBIT">     0</i>
   <i name="AEXX">      0.00000000</i>
   <i name="HFALPHA">      0.00000000</i>
   <i name="MCALPHA">      0.00000000</i>
   <i name="ALDAX">      1.00000000</i>
   <i name="AGGAX">      1.00000000</i>
   <i name="AMGGAX">      1.00000000</i>
   <i name="ALDAC">      1.00000000</i>
   <i name="AGGAC">      1.00000000</i>
   <i name="AMGGAC">      1.00000000</i>
   <i type="int" name="NKREDX">     1</i>
   <i type="int" name="NKREDY">     1</i>
   <i type="int" name="NKREDZ">     1</i>
   <i type="logical" name="SHIFTRED"> F  </i>
   <i type="logical" name="ODDONLY"> F  </i>
   <i type="logical" name="EVENONLY"> F  </i>
   <i type="int" name="LMAXFOCK">     0</i>
   <i type="int" name="NMAXFOCKAE">     0</i>
   <i type="logical" name="LFOCKAEDFT"> F  </i>
   <i name="HFSCREEN">      0.00000000</i>
   <i name="HFSCREENC">      0.00000000</i>
   <i type="int" name="NBANDSGWLOW">     0</i>
  </separator>
  <separator name="vdW DFT" >
   <i type="logical" name="LUSE_VDW"> F  </i>
   <i type="int" name="IVDW_NL">    -1</i>
   <i type="logical" name="LSPIN_VDW"> F  </i>
   <i name="ZAB_VDW">     -0.84910000</i>
   <i name="GAMMA_VDW">      1.39626340</i>
   <i name="ALPHA_VDW">      0.00000000</i>
   <i name="PARAM1">      0.12340000</i>
   <i name="PARAM2">      1.00000000</i>
   <i name="BPARAM">      6.30000000</i>
   <i name="CPARAM">      0.00930000</i>
  </separator>
  <separator name="model GW" >
   <i type="int" name="MODEL_GW">     0</i>
   <i name="MODEL_EPS0">      2.21807458</i>
   <i name="MODEL_ALPHA">      1.00000000</i>
  </separator>
  <separator name="linear response parameters" >
   <i type="logical" name="LEPSILON"> F  </i>
   <i type="logical" name="LRPA"> F  </i>
   <i type="logical" name="LNABLA"> F  </i>
   <i type="logical" name="LVEL"> F  </i>
   <i name="CSHIFT">      0.10000000</i>
   <i name="OMEGAMAX">     -1.00000000</i>
   <i name="DEG_THRESHOLD">      0.00200000</i>
   <i name="RTIME">     -0.10000000</i>
   <i name="WPLASMAI">      0.00000000</i>
   <v name="DFIELD">      0.00000000      0.00000000      0.00000000</v>
   <v name="WPLASMA">      0.00000000      0.00000000      0.00000000      0.00000000      0.00000000      0.00000000      0.00000000      0.00000000      0.00000000</v>
  </separator>
  <separator name="orbital magnetization" >
   <i type="logical" name="NUCIND"> F  </i>
   <v name="MAGPOS">      0.00000000      0.00000000      0.00000000</v>
   <i type="logical" name="LNICSALL"> T  </i>
   <i type="logical" name="ORBITALMAG"> F  </i>
   <i type="logical" name="LMAGBLOCH"> F  </i>
   <i type="logical" name="LCHIMAG"> F  </i>
   <i type="logical" name="LGAUGE"> T  </i>
   <i type="int" name="MAGATOM">     0</i>
   <v name="MAGDIPOL">      0.00000000      0.00000000      0.00000000</v>
   <v name="AVECCONST">      0.00000000      0.00000000      0.00000000</v>
  </separator>
  <separator name="response functions" >
   <i type="logical" name="LALL_IN_ONE"> F  </i>
   <i type="int" name="IALL_IN_ONE">    -1</i>
   <i type="int" name="NBANDS_WAVE">    -1</i>
   <i type="logical" name="LFINITE_TEMPERATURE"> F  </i>
   <i type="logical" name="LADDER"> F  </i>
   <i type="logical" name="LRPAFORCE"> F  </i>
   <i type="logical" name="LFXC"> F  </i>
   <i type="logical" name="LHARTREE"> T  </i>
   <i type="int" name="IBSE">     0</i>
   <v type="int" name="KPOINT">    -1     0     0     0</v>
   <i type="logical" name="LTCTC"> F  </i>
   <i type="logical" name="LTCTE"> F  </i>
   <i type="logical" name="LTETE"> F  </i>
   <i type="logical" name="LTRIPLET"> F  </i>
   <i type="logical" name="LFXCEPS"> F  </i>
   <i type="logical" name="LFXHEG"> F  </i>
   <i type="int" name="NATURALO">     2</i>
   <i type="logical" name="LHOLEGF"> F  </i>
   <i type="logical" name="L2ORDER"> F  </i>
   <i type="logical" name="LDMP1"> F  </i>
   <i type="logical" name="LMP2LT"> F  </i>
   <i type="logical" name="LSMP2LT"> F  </i>
   <i type="logical" name="LGWLF"> F  </i>
   <i name="ENCUTGW">     -1.60000002</i>
   <i name="ENCUTGWSOFT">     -1.60000002</i>
   <i name="ENCUTLF">     -1.00000000</i>
   <i type="logical" name="ESF_SPLINES"> F  </i>
   <i name="ESF_CONV">      0.01000000</i>
   <i type="int" name="ESF_NINTER">    15</i>
   <i type="int" name="LMAXMP2">    -1</i>
   <i name="SCISSOR">      0.00000000</i>
   <i type="int" name="NOMEGA">     0</i>
   <i type="int" name="NOMEGAR">     0</i>
   <i type="int" name="NBANDSGW">    -1</i>
   <i type="int" name="NBANDSO">    -1</i>
   <i type="int" name="NBANDSV">    -1</i>
   <i type="int" name="NELMGW">     1</i>
   <i type="int" name="NELMHF">     1</i>
   <i type="int" name="DIM">     3</i>
   <i type="int" name="IESPILON">     4</i>
   <i type="int" name="ANTIRES">     0</i>
   <i name="OMEGAMAX">    -30.00000000</i>
   <i name="OMEGAMIN">    -30.00000000</i>
   <i name="OMEGATL">   -200.00000000</i>
   <i type="int" name="OMEGAGRID">     0</i>
   <i name="CSHIFT">     -0.10000000</i>
   <i type="logical" name="LSELFENERGY"> F  </i>
   <i type="logical" name="LSPECTRAL"> F  </i>
   <i type="logical" name="LSPECTRALGW"> F  </i>
   <i type="logical" name="LSINGLES"> F  </i>
   <i type="logical" name="LFERMIGW"> F  </i>
   <i type="logical" name="ODDONLYGW"> F  </i>
   <i type="logical" name="EVENONLYGW"> F  </i>
   <i type="int" name="NKREDLFX">     1</i>
   <i type="int" name="NKREDLFY">     1</i>
   <i type="int" name="NKREDLFZ">     1</i>
   <i type="int" name="MAXMEM">  2800</i>
   <i type="int" name="TELESCOPE">     0</i>
   <i type="int" name="NTAUPAR">    -1</i>
   <i type="int" name="NOMEGAPAR">    -1</i>
   <i name="DAMP_NEWTON">      0.80000001</i>
   <i name="LAMBDA">      1.00000000</i>
  </separator>
  <separator name="External order field" >
   <i name="OFIELD_KAPPA">      0.00000000</i>
   <v name="OFIELD_K">      0.00000000      0.00000000      0.00000000</v>
   <i name="OFIELD_Q6_NEAR">      0.00000000</i>
   <i name="OFIELD_Q6_FAR">      0.00000000</i>
   <i name="OFIELD_A">      0.00000000</i>
  </separator>
  <separator name="optional k-points parameters" >
   <i type="int" name="KPOINTS_OPT_MODE">     1</i>
   <i type="logical" name="LKPOINTS_OPT"> F  </i>
  </separator>
 </parameters>
 <atominfo>
  <atoms>       6 </atoms>
  <types>       2 </types>
  <array name="atoms" >
   <dimension dim="1">ion</dimension>
   <field type="string">element</field>
   <field type="int">atomtype</field>
   <set>
    <rc><c>H </c><c>   1</c></rc>
    <rc><c>H </c><c>   1</c></rc>
    <rc><c>H </c><c>   1</c></rc>
    <rc><c>H </c><c>   1</c></rc>
    <rc><c>O </c><c>   2</c></rc>
    <rc><c>O </c><c>   2</c></rc>
   </set>
  </array>
  <array name="atomtypes" >
   <dimension dim="1">type</dimension>
   <field type="int">atomspertype</field>
   <field type="string">element</field>
   <field>mass</field>
   <field>valence</field>
   <field type="string">pseudopotential</field>
   <set>
    <rc><c>   4</c><c>H </c><c>      1.00000000</c><c>      1.00000000</c><c>  PAW_PBE H 15Jun2001                   </c></rc>
    <rc><c>   2</c><c>O </c><c>     16.00000000</c><c>      6.00000000</c><c>  PAW_PBE O 08Apr2002                   </c></rc>
   </set>
  </array>
 </atominfo>
 <structure name="initialpos" >
  <crystal>
   <varray name="basis" >
    <v>       2.80969200       0.00000000       0.00000000 </v>
    <v>       0.00000000       2.80969200       0.00000000 </v>
    <v>       0.00000000       0.00000000       2.80969200 </v>
   </varray>
   <i name="volume">     22.18074580 </i>
   <varray name="rec_basis" >
    <v>       0.35591090       0.00000000       0.00000000 </v>
    <v>       0.00000000       0.35591090       0.00000000 </v>
    <v>       0.00000000       0.00000000       0.35591090 </v>
   </varray>
  </crystal>
  <varray name="positions" >
   <v>       0.78287764       0.78287764       0.21712236 </v>
   <v>       0.21712236       0.21712236       0.21712236 </v>
   <v>       0.28287764       0.71712236       0.71712236 </v>
   <v>       0.71712236       0.28287764       0.71712236 </v>
   <v>       0.00000000       0.00000000       0.00000000 </v>
   <v>       0.50000000       0.50000000       0.50000000 </v>
  </varray>
 </structure>
 <calculation>
  <scstep>
   <time name="dav">    0.09    0.09</time>
   <time name="total">    1.20    1.20</time>
   <energy>
    <i name="alphaZ">     40.44071196 </i>
    <i name="ewald">   -757.24489080 </i>
    <i name="hartreedc">   -179.92324992 </i>
    <i name="XCdc">     78.39709219 </i>
    <i name="pawpsdc">    689.98132605 </i>
    <i name="pawaedc">   -696.05709516 </i>
    <i name="eentropy">     -0.00000000 </i>
    <i name="bandstr">     28.95895546 </i>
    <i name="atom">    914.71008676 </i>
    <i name="e_fr_energy">    119.26293654 </i>
    <i name="e_wo_entrp">    119.26293654 </i>
    <i name="e_0_energy">    119.26293654 </i>
   </energy>
  </scstep>
  <scstep>
   <time name="dav">    0.09    0.09</time>
   <time name="total">    0.09    0.09</time>
   <energy>
    <i name="e_fr_energy">    -25.54289538 </i>
    <i name="e_wo_entrp">    -25.54289538 </i>
    <i name="e_0_energy">    -25.54289538 </i>
   </energy>
  </scstep>
  <scstep>
   <time name="dav">    0.09    0.09</time>
   <time name="total">    0.09    0.09</time>
   <energy>
    <i name="e_fr_energy">    -29.48662202 </i>
    <i name="e_wo_entrp">    -29.48662202 </i>
    <i name="e_0_energy">    -29.48662202 </i>
   </energy>
  </scstep>
  <scstep>
   <time name="dav">    0.08    0.08</time>
   <time name="total">    0.08    0.08</time>
   <energy>
    <i name="e_fr_energy">    -29.50586593 </i>
    <i name="e_wo_entrp">    -29.50586593 </i>
    <i name="e_0_energy">    -29.50586593 </i>
   </energy>
  </scstep>
  <scstep>
   <time name="dav">    0.10    0.10</time>
   <time name="total">    0.12    0.12</time>
   <energy>
    <i name="e_fr_energy">    -29.50607709 </i>
    <i name="e_wo_entrp">    -29.50607709 </i>
    <i name="e_0_energy">    -29.50607709 </i>
   </energy>
  </scstep>
  <scstep>
   <time name="diag">    0.02    0.02</time>
   <time name="diis">    0.12    0.12</time>
   <time name="orth">    0.00    0.00</time>
   <time name="total">    1.27    1.27</time>
   <energy>
    <i name="e_fr_energy">    -20.40310528 </i>
    <i name="e_wo_entrp">    -20.40310528 </i>
    <i name="e_0_energy">    -20.40310528 </i>
   </energy>
  </scstep>
  <scstep>
   <time name="diag">    0.02    0.02</time>
   <time name="diis">    0.12    0.12</time>
   <time name="orth">    0.00    0.00</time>
   <time name="total">    1.26    1.26</time>
   <energy>
    <i name="e_fr_energy">    -20.41844106 </i>
    <i name="e_wo_entrp">    -20.41844106 </i>
    <i name="e_0_energy">    -20.41844106 </i>
   </energy>
  </scstep>
  <scstep>
   <time name="diag">    0.02    0.02</time>
   <time name="diis">    0.12    0.12</time>
   <time name="orth">    0.00    0.00</time>
   <time name="total">    1.26    1.26</time>
   <energy>
    <i name="e_fr_energy">    -20.67679101 </i>
    <i name="e_wo_entrp">    -20.67679101 </i>
    <i name="e_0_energy">    -20.67679101 </i>
   </energy>
  </scstep>
  <scstep>
   <time name="diag">    0.02    0.02</time>
   <time name="diis">    0.12    0.12</time>
   <time name="orth">    0.00    0.00</time>
   <time name="total">    1.27    1.27</time>
   <energy>
    <i name="e_fr_energy">    -20.44388740 </i>
    <i name="e_wo_entrp">    -20.44388740 </i>
    <i name="e_0_energy">    -20.44388740 </i>
   </energy>
  </scstep>
  <scstep>
   <time name="diag">    0.02    0.02</time>
   <time name="diis">    0.12    0.12</time>
   <time name="orth">    0.00    0.00</time>
   <time name="total">    1.26    1.26</time>
   <energy>
    <i name="e_fr_energy">    -20.44636371 </i>
    <i name="e_wo_entrp">    -20.44636371 </i>
    <i name="e_0_energy">    -20.44636371 </i>
   </energy>
  </scstep>
  <scstep>
   <time name="diag">    0.02    0.02</time>
   <time name="diis">    0.13    0.13</time>
   <time name="orth">    0.00    0.00</time>
   <time name="total">    1.27    1.27</time>
   <energy>
    <i name="e_fr_energy">    -20.44602676 </i>
    <i name="e_wo_entrp">    -20.44602676 </i>
    <i name="e_0_energy">    -20.44602676 </i>
   </energy>
  </scstep>
  <scstep>
   <time name="diag">    0.02    0.02</time>
   <time name="diis">    0.13    0.13</time>
   <time name="orth">    0.00    0.00</time>
   <time name="total">    1.27    1.27</time>
   <energy>
    <i name="e_fr_energy">    -20.44579889 </i>
    <i name="e_wo_entrp">    -20.44579889 </i>
    <i name="e_0_energy">    -20.44579889 </i>
   </energy>
  </scstep>
  <scstep>
   <time name="diag">    0.02    0.02</time>
   <time name="diis">    0.12    0.12</time>
   <time name="orth">    0.00    0.00</time>
   <time name="total">    1.26    1.26</time>
   <energy>
    <i name="e_fr_energy">    -20.44574228 </i>
    <i name="e_wo_entrp">    -20.44574228 </i>
    <i name="e_0_energy">    -20.44574228 </i>
   </energy>
  </scstep>
  <scstep>
   <time name="diag">    0.02    0.02</time>
   <time name="diis">    0.12    0.12</time>
   <time name="orth">    0.00    0.00</time>
   <time name="total">    1.27    1.27</time>
   <energy>
    <i name="e_fr_energy">    -20.44568693 </i>
    <i name="e_wo_entrp">    -20.44568693 </i>
    <i name="e_0_energy">    -20.44568693 </i>
   </energy>
  </scstep>
  <scstep>
   <time name="diag">    0.02    0.02</time>
   <time name="diis">    0.12    0.12</time>
   <time name="orth">    0.00    0.00</time>
   <time name="total">    1.26    1.26</time>
   <energy>
    <i name="e_fr_energy">    -20.44567967 </i>
    <i name="e_wo_entrp">    -20.44567967 </i>
    <i name="e_0_energy">    -20.44567967 </i>
   </energy>
  </scstep>
  <scstep>
   <time name="diag">    0.02    0.02</time>
   <time name="diis">    0.10    0.10</time>
   <time name="orth">    0.00    0.00</time>
   <time name="total">    1.24    1.24</time>
   <energy>
    <i name="e_fr_energy">    -20.44567804 </i>
    <i name="e_wo_entrp">    -20.44567804 </i>
    <i name="e_0_energy">    -20.44567804 </i>
   </energy>
  </scstep>
  <scstep>
   <time name="diag">    0.02    0.02</time>
   <time name="diis">    0.09    0.09</time>
   <time name="orth">    0.00    0.00</time>
   <time name="total">    1.23    1.23</time>
   <energy>
    <i name="e_fr_energy">    -20.44567580 </i>
    <i name="e_wo_entrp">    -20.44567580 </i>
    <i name="e_0_energy">    -20.44567580 </i>
   </energy>
  </scstep>
  <scstep>
   <time name="diag">    0.02    0.02</time>
   <time name="diis">    0.09    0.09</time>
   <time name="orth">    0.00    0.00</time>
   <time name="total">    1.23    1.23</time>
   <energy>
    <i name="e_fr_energy">    -20.44567425 </i>
    <i name="e_wo_entrp">    -20.44567425 </i>
    <i name="e_0_energy">    -20.44567425 </i>
   </energy>
  </scstep>
  <scstep>
   <time name="diag">    0.02    0.02</time>
   <time name="diis">    0.09    0.09</time>
   <time name="orth">    0.00    0.00</time>
   <time name="total">    1.20    1.20</time>
   <energy>
    <i name="alphaZ">     40.44071196 </i>
    <i name="ewald">   -757.24489080 </i>
    <i name="hartreedc">   -233.80923647 </i>
    <i name="XCdc">     86.80692780 </i>
    <i name="pawpsdc">   1240.03523822 </i>
    <i name="pawaedc">  -1247.69466071 </i>
    <i name="eentropy">     -0.00000000 </i>
    <i name="bandstr">    -63.68985048 </i>
    <i name="atom">    914.71008676 </i>
    <i name="e_fr_energy">    -20.44567372 </i>
    <i name="e_wo_entrp">    -20.44567372 </i>
    <i name="e_0_energy">    -20.44567372 </i>
   </energy>
  </scstep>
  <structure>
   <crystal>
    <varray name="basis" >
     <v>       2.80969200       0.00000000       0.00000000 </v>
     <v>       0.00000000       2.80969200       0.00000000 </v>
     <v>       0.00000000       0.00000000       2.80969200 </v>
    </varray>
    <i name="volume">     22.18074580 </i>
    <varray name="rec_basis" >
     <v>       0.35591090       0.00000000       0.00000000 </v>
     <v>       0.00000000       0.35591090       0.00000000 </v>
     <v>       0.00000000       0.00000000       0.35591090 </v>
    </varray>
   </crystal>
   <varray name="positions" >
    <v>       0.78287764       0.78287764       0.21712236 </v>
    <v>       0.21712236       0.21712236       0.21712236 </v>
    <v>       0.28287764       0.71712236       0.71712236 </v>
    <v>       0.71712236       0.28287764       0.71712236 </v>
    <v>       0.00000000       0.00000000       0.00000000 </v>
    <v>       0.50000000       0.50000000       0.50000000 </v>
   </varray>
  </structure>
  <varray name="forces" >
   <v>       1.42883554       1.42917263      -1.24429070 </v>
   <v>      -1.42890257      -1.42896997      -1.24450201 </v>
   <v>       1.42883290      -1.42916693      -1.24429233 </v>
   <v>      -1.42889881       1.42896580      -1.24450076 </v>
   <v>       0.00005431      -0.00049818       2.48882068 </v>
   <v>       0.00007862       0.00049665       2.48876513 </v>
  </varray>
  <varray name="stress" >
   <v>    1260.54955022      -0.00402600       0.01735089 </v>
   <v>      -0.00402577    1260.52996027       0.00113384 </v>
   <v>       0.02356226       0.00113385    1295.51190147 </v>
  </varray>
  <energy>
   <i name="e_fr_energy">    -20.44567372 </i>
   <i name="e_wo_entrp">    -20.44567372 </i>
   <i name="e_0_energy">    -20.44567372 </i>
  </energy>
  <time name="totalsc">   21.81   21.81</time>
  <eigenvalues>
   <array>
    <dimension dim="1">band</dimension>
    <dimension dim="2">kpoint</dimension>
    <dimension dim="3">spin</dimension>
    <field>eigene</field>
    <field>occ</field>
    <set>
     <set comment="spin 1">
      <set comment="kpoint 1">
       <r>  -19.8745    1.0000 </r>
       <r>  -13.6180    1.0000 </r>
       <r>   -3.5655    1.0000 </r>
       <r>   -3.5655    1.0000 </r>
       <r>   -2.8540    1.0000 </r>
       <r>    3.7860    1.0000 </r>
       <r>    3.9233    1.0000 </r>
       <r>    3.9233    1.0000 </r>
       <r>   12.2368    0.0000 </r>
       <r>   14.6683    0.0000 </r>
       <r>   14.6803    0.0000 </r>
       <r>   20.7035    0.0000 </r>
      </set>
     </set>
    </set>
   </array>
  </eigenvalues>
  <separator name="orbital magnetization" >
   <v name="MAGDIPOLOUT">      0.00000000      0.00000000      0.00000000</v>
  </separator>
  <dos>
   <i name="efermi">      4.17132868 </i>
   <total>
    <array>
     <dimension dim="1">gridpoints</dimension>
     <dimension dim="2">spin</dimension>
     <field>energy</field>
     <field>total</field>
     <field>integrated</field>
     <set>
      <set comment="spin 1">
       <r>   -21.9034     0.0000     0.0000 </r>
       <r>   -21.7546     0.0000     0.0000 </r>
       <r>   -21.6058     0.0000     0.0000 </r>
       <r>   -21.4570     0.0000     0.0000 </r>
       <r>   -21.3082     0.0000     0.0000 </r>
       <r>   -21.1595     0.0000     0.0000 </r>
       <r>   -21.0107     0.0000     0.0000 </r>
       <r>   -20.8619     0.0000     0.0000 </r>
       <r>   -20.7131     0.0000     0.0000 </r>
       <r>   -20.5643     0.0000     0.0000 </r>
       <r>   -20.4155     0.0000     0.0000 </r>
       <r>   -20.2667     0.0000     0.0000 </r>
       <r>   -20.1180     0.0000     0.0000 </r>
       <r>   -19.9692     0.0498     0.0074 </r>
       <r>   -19.8204    12.5459     1.8741 </r>
       <r>   -19.6716     0.8465     2.0000 </r>
       <r>   -19.5228     0.0000     2.0000 </r>
       <r>   -19.3740     0.0000     2.0000 </r>
       <r>   -19.2252     0.0000     2.0000 </r>
       <r>   -19.0765     0.0000     2.0000 </r>
       <r>   -18.9277     0.0000     2.0000 </r>
       <r>   -18.7789     0.0000     2.0000 </r>
       <r>   -18.6301     0.0000     2.0000 </r>
       <r>   -18.4813     0.0000     2.0000 </r>
       <r>   -18.3325     0.0000     2.0000 </r>
       <r>   -18.1837     0.0000     2.0000 </r>
       <r>   -18.0350     0.0000     2.0000 </r>
       <r>   -17.8862     0.0000     2.0000 </r>
       <r>   -17.7374     0.0000     2.0000 </r>
       <r>   -17.5886     0.0000     2.0000 </r>
       <r>   -17.4398     0.0000     2.0000 </r>
       <r>   -17.2910     0.0000     2.0000 </r>
       <r>   -17.1422     0.0000     2.0000 </r>
       <r>   -16.9935     0.0000     2.0000 </r>
       <r>   -16.8447     0.0000     2.0000 </r>
       <r>   -16.6959     0.0000     2.0000 </r>
       <r>   -16.5471     0.0000     2.0000 </r>
       <r>   -16.3983     0.0000     2.0000 </r>
       <r>   -16.2495     0.0000     2.0000 </r>
       <r>   -16.1007     0.0000     2.0000 </r>
       <r>   -15.9520     0.0000     2.0000 </r>
       <r>   -15.8032     0.0000     2.0000 </r>
       <r>   -15.6544     0.0000     2.0000 </r>
       <r>   -15.5056     0.0000     2.0000 </r>
       <r>   -15.3568     0.0000     2.0000 </r>
       <r>   -15.2080     0.0000     2.0000 </r>
       <r>   -15.0592     0.0000     2.0000 </r>
       <r>   -14.9105     0.0000     2.0000 </r>
       <r>   -14.7617     0.0000     2.0000 </r>
       <r>   -14.6129     0.0000     2.0000 </r>
       <r>   -14.4641     0.0000     2.0000 </r>
       <r>   -14.3153     0.0000     2.0000 </r>
       <r>   -14.1665     0.0000     2.0000 </r>
       <r>   -14.0177     0.0000     2.0000 </r>
       <r>   -13.8690     0.0000     2.0000 </r>
       <r>   -13.7202     0.0258     2.0038 </r>
       <r>   -13.5714    12.1548     3.8123 </r>
       <r>   -13.4226     1.2616     4.0000 </r>
       <r>   -13.2738     0.0000     4.0000 </r>
       <r>   -13.1250     0.0000     4.0000 </r>
       <r>   -12.9762     0.0000     4.0000 </r>
       <r>   -12.8275     0.0000     4.0000 </r>
       <r>   -12.6787     0.0000     4.0000 </r>
       <r>   -12.5299     0.0000     4.0000 </r>
       <r>   -12.3811     0.0000     4.0000 </r>
       <r>   -12.2323     0.0000     4.0000 </r>
       <r>   -12.0835     0.0000     4.0000 </r>
       <r>   -11.9347     0.0000     4.0000 </r>
       <r>   -11.7860     0.0000     4.0000 </r>
       <r>   -11.6372     0.0000     4.0000 </r>
       <r>   -11.4884     0.0000     4.0000 </r>
       <r>   -11.3396     0.0000     4.0000 </r>
       <r>   -11.1908     0.0000     4.0000 </r>
       <r>   -11.0420     0.0000     4.0000 </r>
       <r>   -10.8932     0.0000     4.0000 </r>
       <r>   -10.7444     0.0000     4.0000 </r>
       <r>   -10.5957     0.0000     4.0000 </r>
       <r>   -10.4469     0.0000     4.0000 </r>
       <r>   -10.2981     0.0000     4.0000 </r>
       <r>   -10.1493     0.0000     4.0000 </r>
       <r>   -10.0005     0.0000     4.0000 </r>
       <r>    -9.8517     0.0000     4.0000 </r>
       <r>    -9.7029     0.0000     4.0000 </r>
       <r>    -9.5542     0.0000     4.0000 </r>
       <r>    -9.4054     0.0000     4.0000 </r>
       <r>    -9.2566     0.0000     4.0000 </r>
       <r>    -9.1078     0.0000     4.0000 </r>
       <r>    -8.9590     0.0000     4.0000 </r>
       <r>    -8.8102     0.0000     4.0000 </r>
       <r>    -8.6614     0.0000     4.0000 </r>
       <r>    -8.5127     0.0000     4.0000 </r>
       <r>    -8.3639     0.0000     4.0000 </r>
       <r>    -8.2151     0.0000     4.0000 </r>
       <r>    -8.0663     0.0000     4.0000 </r>
       <r>    -7.9175     0.0000     4.0000 </r>
       <r>    -7.7687     0.0000     4.0000 </r>
       <r>    -7.6199     0.0000     4.0000 </r>
       <r>    -7.4712     0.0000     4.0000 </r>
       <r>    -7.3224     0.0000     4.0000 </r>
       <r>    -7.1736     0.0000     4.0000 </r>
       <r>    -7.0248     0.0000     4.0000 </r>
       <r>    -6.8760     0.0000     4.0000 </r>
       <r>    -6.7272     0.0000     4.0000 </r>
       <r>    -6.5784     0.0000     4.0000 </r>
       <r>    -6.4297     0.0000     4.0000 </r>
       <r>    -6.2809     0.0000     4.0000 </r>
       <r>    -6.1321     0.0000     4.0000 </r>
       <r>    -5.9833     0.0000     4.0000 </r>
       <r>    -5.8345     0.0000     4.0000 </r>
       <r>    -5.6857     0.0000     4.0000 </r>
       <r>    -5.5369     0.0000     4.0000 </r>
       <r>    -5.3882     0.0000     4.0000 </r>
       <r>    -5.2394     0.0000     4.0000 </r>
       <r>    -5.0906     0.0000     4.0000 </r>
       <r>    -4.9418     0.0000     4.0000 </r>
       <r>    -4.7930     0.0000     4.0000 </r>
       <r>    -4.6442     0.0000     4.0000 </r>
       <r>    -4.4954     0.0000     4.0000 </r>
       <r>    -4.3467     0.0000     4.0000 </r>
       <r>    -4.1979     0.0000     4.0000 </r>
       <r>    -4.0491     0.0000     4.0000 </r>
       <r>    -3.9003     0.0000     4.0000 </r>
       <r>    -3.7515     0.0000     4.0000 </r>
       <r>    -3.6027     3.9328     4.5851 </r>
       <r>    -3.4539    22.9299     7.9968 </r>
       <r>    -3.3052     0.0215     8.0000 </r>
       <r>    -3.1564     0.0000     8.0000 </r>
       <r>    -3.0076     0.0001     8.0000 </r>
       <r>    -2.8588     5.9983     8.8925 </r>
       <r>    -2.7100     7.4435    10.0000 </r>
       <r>    -2.5612     0.0003    10.0000 </r>
       <r>    -2.4124     0.0000    10.0000 </r>
       <r>    -2.2637     0.0000    10.0000 </r>
       <r>    -2.1149     0.0000    10.0000 </r>
       <r>    -1.9661     0.0000    10.0000 </r>
       <r>    -1.8173     0.0000    10.0000 </r>
       <r>    -1.6685     0.0000    10.0000 </r>
       <r>    -1.5197     0.0000    10.0000 </r>
       <r>    -1.3709     0.0000    10.0000 </r>
       <r>    -1.2222     0.0000    10.0000 </r>
       <r>    -1.0734     0.0000    10.0000 </r>
       <r>    -0.9246     0.0000    10.0000 </r>
       <r>    -0.7758     0.0000    10.0000 </r>
       <r>    -0.6270     0.0000    10.0000 </r>
       <r>    -0.4782     0.0000    10.0000 </r>
       <r>    -0.3294     0.0000    10.0000 </r>
       <r>    -0.1807     0.0000    10.0000 </r>
       <r>    -0.0319     0.0000    10.0000 </r>
       <r>     0.1169     0.0000    10.0000 </r>
       <r>     0.2657     0.0000    10.0000 </r>
       <r>     0.4145     0.0000    10.0000 </r>
       <r>     0.5633     0.0000    10.0000 </r>
       <r>     0.7121     0.0000    10.0000 </r>
       <r>     0.8608     0.0000    10.0000 </r>
       <r>     1.0096     0.0000    10.0000 </r>
       <r>     1.1584     0.0000    10.0000 </r>
       <r>     1.3072     0.0000    10.0000 </r>
       <r>     1.4560     0.0000    10.0000 </r>
       <r>     1.6048     0.0000    10.0000 </r>
       <r>     1.7536     0.0000    10.0000 </r>
       <r>     1.9023     0.0000    10.0000 </r>
       <r>     2.0511     0.0000    10.0000 </r>
       <r>     2.1999     0.0000    10.0000 </r>
       <r>     2.3487     0.0000    10.0000 </r>
       <r>     2.4975     0.0000    10.0000 </r>
       <r>     2.6463     0.0000    10.0000 </r>
       <r>     2.7951     0.0000    10.0000 </r>
       <r>     2.9438     0.0000    10.0000 </r>
       <r>     3.0926     0.0000    10.0000 </r>
       <r>     3.2414     0.0000    10.0000 </r>
       <r>     3.3902     0.0000    10.0000 </r>
       <r>     3.5390     0.0000    10.0000 </r>
       <r>     3.6878     0.0368    10.0055 </r>
       <r>     3.8366    12.5703    11.8757 </r>
       <r>     3.9853    26.6539    15.8415 </r>
       <r>     4.1341     1.0655    16.0000 </r>
       <r>     4.2829     0.0000    16.0000 </r>
       <r>     4.4317     0.0000    16.0000 </r>
       <r>     4.5805     0.0000    16.0000 </r>
       <r>     4.7293     0.0000    16.0000 </r>
       <r>     4.8781     0.0000    16.0000 </r>
       <r>     5.0268     0.0000    16.0000 </r>
       <r>     5.1756     0.0000    16.0000 </r>
       <r>     5.3244     0.0000    16.0000 </r>
       <r>     5.4732     0.0000    16.0000 </r>
       <r>     5.6220     0.0000    16.0000 </r>
       <r>     5.7708     0.0000    16.0000 </r>
       <r>     5.9196     0.0000    16.0000 </r>
       <r>     6.0683     0.0000    16.0000 </r>
       <r>     6.2171     0.0000    16.0000 </r>
       <r>     6.3659     0.0000    16.0000 </r>
       <r>     6.5147     0.0000    16.0000 </r>
       <r>     6.6635     0.0000    16.0000 </r>
       <r>     6.8123     0.0000    16.0000 </r>
       <r>     6.9611     0.0000    16.0000 </r>
       <r>     7.1098     0.0000    16.0000 </r>
       <r>     7.2586     0.0000    16.0000 </r>
       <r>     7.4074     0.0000    16.0000 </r>
       <r>     7.5562     0.0000    16.0000 </r>
       <r>     7.7050     0.0000    16.0000 </r>
       <r>     7.8538     0.0000    16.0000 </r>
       <r>     8.0026     0.0000    16.0000 </r>
       <r>     8.1513     0.0000    16.0000 </r>
       <r>     8.3001     0.0000    16.0000 </r>
       <r>     8.4489     0.0000    16.0000 </r>
       <r>     8.5977     0.0000    16.0000 </r>
       <r>     8.7465     0.0000    16.0000 </r>
       <r>     8.8953     0.0000    16.0000 </r>
       <r>     9.0441     0.0000    16.0000 </r>
       <r>     9.1929     0.0000    16.0000 </r>
       <r>     9.3416     0.0000    16.0000 </r>
       <r>     9.4904     0.0000    16.0000 </r>
       <r>     9.6392     0.0000    16.0000 </r>
       <r>     9.7880     0.0000    16.0000 </r>
       <r>     9.9368     0.0000    16.0000 </r>
       <r>    10.0856     0.0000    16.0000 </r>
       <r>    10.2344     0.0000    16.0000 </r>
       <r>    10.3831     0.0000    16.0000 </r>
       <r>    10.5319     0.0000    16.0000 </r>
       <r>    10.6807     0.0000    16.0000 </r>
       <r>    10.8295     0.0000    16.0000 </r>
       <r>    10.9783     0.0000    16.0000 </r>
       <r>    11.1271     0.0000    16.0000 </r>
       <r>    11.2759     0.0000    16.0000 </r>
       <r>    11.4246     0.0000    16.0000 </r>
       <r>    11.5734     0.0000    16.0000 </r>
       <r>    11.7222     0.0000    16.0000 </r>
       <r>    11.8710     0.0000    16.0000 </r>
       <r>    12.0198     0.0000    16.0000 </r>
       <r>    12.1686     0.3592    16.0534 </r>
       <r>    12.3174    12.9298    17.9772 </r>
       <r>    12.4661     0.1532    18.0000 </r>
       <r>    12.6149     0.0000    18.0000 </r>
       <r>    12.7637     0.0000    18.0000 </r>
       <r>    12.9125     0.0000    18.0000 </r>
       <r>    13.0613     0.0000    18.0000 </r>
       <r>    13.2101     0.0000    18.0000 </r>
       <r>    13.3589     0.0000    18.0000 </r>
       <r>    13.5076     0.0000    18.0000 </r>
       <r>    13.6564     0.0000    18.0000 </r>
       <r>    13.8052     0.0000    18.0000 </r>
       <r>    13.9540     0.0000    18.0000 </r>
       <r>    14.1028     0.0000    18.0000 </r>
       <r>    14.2516     0.0000    18.0000 </r>
       <r>    14.4004     0.0000    18.0000 </r>
       <r>    14.5491     0.0064    18.0010 </r>
       <r>    14.6979    20.0159    20.9790 </r>
       <r>    14.8467     6.8619    22.0000 </r>
       <r>    14.9955     0.0000    22.0000 </r>
       <r>    15.1443     0.0000    22.0000 </r>
       <r>    15.2931     0.0000    22.0000 </r>
       <r>    15.4419     0.0000    22.0000 </r>
       <r>    15.5906     0.0000    22.0000 </r>
       <r>    15.7394     0.0000    22.0000 </r>
       <r>    15.8882     0.0000    22.0000 </r>
       <r>    16.0370     0.0000    22.0000 </r>
       <r>    16.1858     0.0000    22.0000 </r>
       <r>    16.3346     0.0000    22.0000 </r>
       <r>    16.4834     0.0000    22.0000 </r>
       <r>    16.6321     0.0000    22.0000 </r>
       <r>    16.7809     0.0000    22.0000 </r>
       <r>    16.9297     0.0000    22.0000 </r>
       <r>    17.0785     0.0000    22.0000 </r>
       <r>    17.2273     0.0000    22.0000 </r>
       <r>    17.3761     0.0000    22.0000 </r>
       <r>    17.5249     0.0000    22.0000 </r>
       <r>    17.6736     0.0000    22.0000 </r>
       <r>    17.8224     0.0000    22.0000 </r>
       <r>    17.9712     0.0000    22.0000 </r>
       <r>    18.1200     0.0000    22.0000 </r>
       <r>    18.2688     0.0000    22.0000 </r>
       <r>    18.4176     0.0000    22.0000 </r>
       <r>    18.5664     0.0000    22.0000 </r>
       <r>    18.7151     0.0000    22.0000 </r>
       <r>    18.8639     0.0000    22.0000 </r>
       <r>    19.0127     0.0000    22.0000 </r>
       <r>    19.1615     0.0000    22.0000 </r>
       <r>    19.3103     0.0000    22.0000 </r>
       <r>    19.4591     0.0000    22.0000 </r>
       <r>    19.6079     0.0000    22.0000 </r>
       <r>    19.7566     0.0000    22.0000 </r>
       <r>    19.9054     0.0000    22.0000 </r>
       <r>    20.0542     0.0000    22.0000 </r>
       <r>    20.2030     0.0000    22.0000 </r>
       <r>    20.3518     0.0000    22.0000 </r>
       <r>    20.5006     0.0000    22.0000 </r>
       <r>    20.6494     0.8465    22.1259 </r>
       <r>    20.7981    12.5459    23.9926 </r>
       <r>    20.9469     0.0498    24.0000 </r>
       <r>    21.0957     0.0000    24.0000 </r>
       <r>    21.2445     0.0000    24.0000 </r>
       <r>    21.3933     0.0000    24.0000 </r>
       <r>    21.5421     0.0000    24.0000 </r>
       <r>    21.6909     0.0000    24.0000 </r>
       <r>    21.8396     0.0000    24.0000 </r>
       <r>    21.9884     0.0000    24.0000 </r>
       <r>    22.1372     0.0000    24.0000 </r>
       <r>    22.2860     0.0000    24.0000 </r>
       <r>    22.4348     0.0000    24.0000 </r>
       <r>    22.5836     0.0000    24.0000 </r>
       <r>    22.7324     0.0000    24.0000 </r>
      </set>
     </set>
    </array>
   </total>
  </dos>
 </calculation>
 <structure name="finalpos" >
  <crystal>
   <varray name="basis" >
    <v>       2.80969200       0.00000000       0.00000000 </v>
    <v>       0.00000000       2.80969200       0.00000000 </v>
    <v>       0.00000000       0.00000000       2.80969200 </v>
   </varray>
   <i name="volume">     22.18074580 </i>
   <varray name="rec_basis" >
    <v>       0.35591090       0.00000000       0.00000000 </v>
    <v>       0.00000000       0.35591090       0.00000000 </v>
    <v>       0.00000000       0.00000000       0.35591090 </v>
   </varray>
  </crystal>
  <varray name="positions" >
   <v>       0.78287764       0.78287764       0.21712236 </v>
   <v>       0.21712236       0.21712236       0.21712236 </v>
   <v>       0.28287764       0.71712236       0.71712236 </v>
   <v>       0.71712236       0.28287764       0.71712236 </v>
   <v>       0.00000000       0.00000000       0.00000000 </v>
   <v>       0.50000000       0.50000000       0.50000000 </v>
  </varray>
 </structure>
</modeling>
