unknown system                          
           1
     2.809692    0.000000    0.000000
     0.000000    2.809692    0.000000
     0.000000    0.000000    2.809692
   H    O 
     4     2
Direct configuration=     1
   0.78287764  0.78287764  0.21712236
   0.21712236  0.21712236  0.21712236
   0.28287764  0.71712236  0.71712236
   0.71712236  0.28287764  0.71712236
   0.00000000  0.00000000  0.00000000
   0.50000000  0.50000000  0.50000000
