   6   6   0   0
  0.3696791E+01  0.2809692E-09  0.2809692E-09  0.2809692E-09  0.5000000E-15
  1.000000000000000E-004
  CAR 
 unknown system                          
     22.11314393    -20.19541273  301      4.78426426      1.00000000
    -20.195  0.0000E+00  0.0000E+00
    -20.054  0.0000E+00  0.0000E+00
    -19.913  0.0000E+00  0.0000E+00
    -19.772  0.0000E+00  0.0000E+00
    -19.631  0.0000E+00  0.0000E+00
    -19.490  0.0000E+00  0.0000E+00
    -19.349  0.0000E+00  0.0000E+00
    -19.208  0.0000E+00  0.0000E+00
    -19.067  0.0000E+00  0.0000E+00
    -18.926  0.0000E+00  0.0000E+00
    -18.785  0.0000E+00  0.0000E+00
    -18.644  0.0000E+00  0.0000E+00
    -18.503  0.4749E-09  0.6698E-10
    -18.362  0.7897E-01  0.1114E-01
    -18.221  0.1306E+02  0.1853E+01
    -18.080  0.1042E+01  0.2000E+01
    -17.939  0.3791E-06  0.2000E+01
    -17.798  0.0000E+00  0.2000E+01
    -17.657  0.0000E+00  0.2000E+01
    -17.516  0.0000E+00  0.2000E+01
    -17.375  0.0000E+00  0.2000E+01
    -17.234  0.0000E+00  0.2000E+01
    -17.093  0.0000E+00  0.2000E+01
    -16.952  0.0000E+00  0.2000E+01
    -16.811  0.0000E+00  0.2000E+01
    -16.670  0.0000E+00  0.2000E+01
    -16.529  0.0000E+00  0.2000E+01
    -16.388  0.0000E+00  0.2000E+01
    -16.247  0.0000E+00  0.2000E+01
    -16.106  0.0000E+00  0.2000E+01
    -15.965  0.0000E+00  0.2000E+01
    -15.824  0.0000E+00  0.2000E+01
    -15.683  0.0000E+00  0.2000E+01
    -15.541  0.0000E+00  0.2000E+01
    -15.400  0.0000E+00  0.2000E+01
    -15.259  0.0000E+00  0.2000E+01
    -15.118  0.0000E+00  0.2000E+01
    -14.977  0.0000E+00  0.2000E+01
    -14.836  0.0000E+00  0.2000E+01
    -14.695  0.0000E+00  0.2000E+01
    -14.554  0.0000E+00  0.2000E+01
    -14.413  0.0000E+00  0.2000E+01
    -14.272  0.0000E+00  0.2000E+01
    -14.131  0.0000E+00  0.2000E+01
    -13.990  0.0000E+00  0.2000E+01
    -13.849  0.0000E+00  0.2000E+01
    -13.708  0.0000E+00  0.2000E+01
    -13.567  0.0000E+00  0.2000E+01
    -13.426  0.0000E+00  0.2000E+01
    -13.285  0.0000E+00  0.2000E+01
    -13.144  0.0000E+00  0.2000E+01
    -13.003  0.0000E+00  0.2000E+01
    -12.862  0.0000E+00  0.2000E+01
    -12.721  0.0000E+00  0.2000E+01
    -12.580  0.0000E+00  0.2000E+01
    -12.439  0.0000E+00  0.2000E+01
    -12.298  0.0000E+00  0.2000E+01
    -12.157  0.1496E-04  0.2000E+01
    -12.016  0.3198E+01  0.2451E+01
    -11.875  0.1097E+02  0.3999E+01
    -11.734  0.8620E-02  0.4000E+01
    -11.593  0.3577E-11  0.4000E+01
    -11.452  0.0000E+00  0.4000E+01
    -11.311  0.0000E+00  0.4000E+01
    -11.170  0.0000E+00  0.4000E+01
    -11.029  0.0000E+00  0.4000E+01
    -10.888  0.0000E+00  0.4000E+01
    -10.747  0.0000E+00  0.4000E+01
    -10.605  0.0000E+00  0.4000E+01
    -10.464  0.0000E+00  0.4000E+01
    -10.323  0.0000E+00  0.4000E+01
    -10.182  0.0000E+00  0.4000E+01
    -10.041  0.0000E+00  0.4000E+01
     -9.900  0.0000E+00  0.4000E+01
     -9.759  0.0000E+00  0.4000E+01
     -9.618  0.0000E+00  0.4000E+01
     -9.477  0.0000E+00  0.4000E+01
     -9.336  0.0000E+00  0.4000E+01
     -9.195  0.0000E+00  0.4000E+01
     -9.054  0.0000E+00  0.4000E+01
     -8.913  0.0000E+00  0.4000E+01
     -8.772  0.0000E+00  0.4000E+01
     -8.631  0.0000E+00  0.4000E+01
     -8.490  0.0000E+00  0.4000E+01
     -8.349  0.0000E+00  0.4000E+01
     -8.208  0.0000E+00  0.4000E+01
     -8.067  0.0000E+00  0.4000E+01
     -7.926  0.0000E+00  0.4000E+01
     -7.785  0.0000E+00  0.4000E+01
     -7.644  0.0000E+00  0.4000E+01
     -7.503  0.0000E+00  0.4000E+01
     -7.362  0.0000E+00  0.4000E+01
     -7.221  0.0000E+00  0.4000E+01
     -7.080  0.0000E+00  0.4000E+01
     -6.939  0.0000E+00  0.4000E+01
     -6.798  0.0000E+00  0.4000E+01
     -6.657  0.0000E+00  0.4000E+01
     -6.516  0.0000E+00  0.4000E+01
     -6.375  0.0000E+00  0.4000E+01
     -6.234  0.0000E+00  0.4000E+01
     -6.093  0.0000E+00  0.4000E+01
     -5.952  0.0000E+00  0.4000E+01
     -5.811  0.0000E+00  0.4000E+01
     -5.669  0.0000E+00  0.4000E+01
     -5.528  0.0000E+00  0.4000E+01
     -5.387  0.0000E+00  0.4000E+01
     -5.246  0.0000E+00  0.4000E+01
     -5.105  0.0000E+00  0.4000E+01
     -4.964  0.0000E+00  0.4000E+01
     -4.823  0.0000E+00  0.4000E+01
     -4.682  0.0000E+00  0.4000E+01
     -4.541  0.0000E+00  0.4000E+01
     -4.400  0.0000E+00  0.4000E+01
     -4.259  0.0000E+00  0.4000E+01
     -4.118  0.0000E+00  0.4000E+01
     -3.977  0.0000E+00  0.4000E+01
     -3.836  0.0000E+00  0.4000E+01
     -3.695  0.0000E+00  0.4000E+01
     -3.554  0.0000E+00  0.4000E+01
     -3.413  0.0000E+00  0.4000E+01
     -3.272  0.0000E+00  0.4000E+01
     -3.131  0.5243E-12  0.4000E+01
     -2.990  0.4829E-02  0.4001E+01
     -2.849  0.1865E+02  0.6631E+01
     -2.708  0.9705E+01  0.8000E+01
     -2.567  0.1568E-03  0.8000E+01
     -2.426  0.3779E-13  0.8000E+01
     -2.285  0.9106E-03  0.8000E+01
     -2.144  0.7988E+01  0.9127E+01
     -2.003  0.6192E+01  0.1000E+02
     -1.862  0.2375E-03  0.1000E+02
     -1.721  0.0000E+00  0.1000E+02
     -1.580  0.0000E+00  0.1000E+02
     -1.439  0.0000E+00  0.1000E+02
     -1.298  0.0000E+00  0.1000E+02
     -1.157  0.0000E+00  0.1000E+02
     -1.016  0.0000E+00  0.1000E+02
     -0.875  0.0000E+00  0.1000E+02
     -0.733  0.0000E+00  0.1000E+02
     -0.592  0.0000E+00  0.1000E+02
     -0.451  0.0000E+00  0.1000E+02
     -0.310  0.0000E+00  0.1000E+02
     -0.169  0.0000E+00  0.1000E+02
     -0.028  0.0000E+00  0.1000E+02
      0.113  0.0000E+00  0.1000E+02
      0.254  0.0000E+00  0.1000E+02
      0.395  0.0000E+00  0.1000E+02
      0.536  0.0000E+00  0.1000E+02
      0.677  0.0000E+00  0.1000E+02
      0.818  0.0000E+00  0.1000E+02
      0.959  0.0000E+00  0.1000E+02
      1.100  0.0000E+00  0.1000E+02
      1.241  0.0000E+00  0.1000E+02
      1.382  0.0000E+00  0.1000E+02
      1.523  0.0000E+00  0.1000E+02
      1.664  0.0000E+00  0.1000E+02
      1.805  0.0000E+00  0.1000E+02
      1.946  0.0000E+00  0.1000E+02
      2.087  0.0000E+00  0.1000E+02
      2.228  0.0000E+00  0.1000E+02
      2.369  0.0000E+00  0.1000E+02
      2.510  0.0000E+00  0.1000E+02
      2.651  0.0000E+00  0.1000E+02
      2.792  0.0000E+00  0.1000E+02
      2.933  0.0000E+00  0.1000E+02
      3.074  0.0000E+00  0.1000E+02
      3.215  0.0000E+00  0.1000E+02
      3.356  0.0000E+00  0.1000E+02
      3.497  0.0000E+00  0.1000E+02
      3.638  0.0000E+00  0.1000E+02
      3.779  0.0000E+00  0.1000E+02
      3.920  0.0000E+00  0.1000E+02
      4.061  0.1393E-12  0.1000E+02
      4.203  0.1763E-02  0.1000E+02
      4.344  0.8899E+01  0.1126E+02
      4.485  0.2171E+02  0.1432E+02
      4.626  0.1194E+02  0.1600E+02
      4.767  0.3982E-03  0.1600E+02
      4.908  0.0000E+00  0.1600E+02
      5.049  0.0000E+00  0.1600E+02
      5.190  0.0000E+00  0.1600E+02
      5.331  0.0000E+00  0.1600E+02
      5.472  0.0000E+00  0.1600E+02
      5.613  0.0000E+00  0.1600E+02
      5.754  0.0000E+00  0.1600E+02
      5.895  0.0000E+00  0.1600E+02
      6.036  0.0000E+00  0.1600E+02
      6.177  0.0000E+00  0.1600E+02
      6.318  0.0000E+00  0.1600E+02
      6.459  0.0000E+00  0.1600E+02
      6.600  0.0000E+00  0.1600E+02
      6.741  0.0000E+00  0.1600E+02
      6.882  0.0000E+00  0.1600E+02
      7.023  0.0000E+00  0.1600E+02
      7.164  0.0000E+00  0.1600E+02
      7.305  0.0000E+00  0.1600E+02
      7.446  0.0000E+00  0.1600E+02
      7.587  0.0000E+00  0.1600E+02
      7.728  0.0000E+00  0.1600E+02
      7.869  0.0000E+00  0.1600E+02
      8.010  0.0000E+00  0.1600E+02
      8.151  0.0000E+00  0.1600E+02
      8.292  0.0000E+00  0.1600E+02
      8.433  0.0000E+00  0.1600E+02
      8.574  0.0000E+00  0.1600E+02
      8.715  0.0000E+00  0.1600E+02
      8.856  0.0000E+00  0.1600E+02
      8.997  0.0000E+00  0.1600E+02
      9.139  0.0000E+00  0.1600E+02
      9.280  0.0000E+00  0.1600E+02
      9.421  0.0000E+00  0.1600E+02
      9.562  0.0000E+00  0.1600E+02
      9.703  0.0000E+00  0.1600E+02
      9.844  0.0000E+00  0.1600E+02
      9.985  0.0000E+00  0.1600E+02
     10.126  0.0000E+00  0.1600E+02
     10.267  0.0000E+00  0.1600E+02
     10.408  0.0000E+00  0.1600E+02
     10.549  0.0000E+00  0.1600E+02
     10.690  0.0000E+00  0.1600E+02
     10.831  0.0000E+00  0.1600E+02
     10.972  0.0000E+00  0.1600E+02
     11.113  0.0000E+00  0.1600E+02
     11.254  0.0000E+00  0.1600E+02
     11.395  0.0000E+00  0.1600E+02
     11.536  0.0000E+00  0.1600E+02
     11.677  0.0000E+00  0.1600E+02
     11.818  0.0000E+00  0.1600E+02
     11.959  0.1362E-12  0.1600E+02
     12.100  0.1742E-02  0.1600E+02
     12.241  0.8881E+01  0.1725E+02
     12.382  0.5299E+01  0.1800E+02
     12.523  0.1152E-03  0.1800E+02
     12.664  0.0000E+00  0.1800E+02
     12.805  0.0000E+00  0.1800E+02
     12.946  0.0000E+00  0.1800E+02
     13.087  0.0000E+00  0.1800E+02
     13.228  0.0000E+00  0.1800E+02
     13.369  0.0000E+00  0.1800E+02
     13.510  0.0000E+00  0.1800E+02
     13.651  0.0000E+00  0.1800E+02
     13.792  0.0000E+00  0.1800E+02
     13.933  0.0000E+00  0.1800E+02
     14.075  0.0000E+00  0.1800E+02
     14.216  0.0000E+00  0.1800E+02
     14.357  0.2988E-11  0.1800E+02
     14.498  0.9486E-02  0.1800E+02
     14.639  0.1973E+02  0.2078E+02
     14.780  0.8621E+01  0.2200E+02
     14.921  0.1317E-03  0.2200E+02
     15.062  0.0000E+00  0.2200E+02
     15.203  0.0000E+00  0.2200E+02
     15.344  0.0000E+00  0.2200E+02
     15.485  0.0000E+00  0.2200E+02
     15.626  0.0000E+00  0.2200E+02
     15.767  0.0000E+00  0.2200E+02
     15.908  0.0000E+00  0.2200E+02
     16.049  0.0000E+00  0.2200E+02
     16.190  0.0000E+00  0.2200E+02
     16.331  0.0000E+00  0.2200E+02
     16.472  0.0000E+00  0.2200E+02
     16.613  0.0000E+00  0.2200E+02
     16.754  0.0000E+00  0.2200E+02
     16.895  0.0000E+00  0.2200E+02
     17.036  0.0000E+00  0.2200E+02
     17.177  0.0000E+00  0.2200E+02
     17.318  0.0000E+00  0.2200E+02
     17.459  0.0000E+00  0.2200E+02
     17.600  0.0000E+00  0.2200E+02
     17.741  0.0000E+00  0.2200E+02
     17.882  0.0000E+00  0.2200E+02
     18.023  0.0000E+00  0.2200E+02
     18.164  0.0000E+00  0.2200E+02
     18.305  0.0000E+00  0.2200E+02
     18.446  0.0000E+00  0.2200E+02
     18.587  0.0000E+00  0.2200E+02
     18.728  0.0000E+00  0.2200E+02
     18.869  0.0000E+00  0.2200E+02
     19.011  0.0000E+00  0.2200E+02
     19.152  0.0000E+00  0.2200E+02
     19.293  0.0000E+00  0.2200E+02
     19.434  0.0000E+00  0.2200E+02
     19.575  0.0000E+00  0.2200E+02
     19.716  0.0000E+00  0.2200E+02
     19.857  0.0000E+00  0.2200E+02
     19.998  0.3791E-06  0.2200E+02
     20.139  0.1042E+01  0.2215E+02
     20.280  0.1306E+02  0.2399E+02
     20.421  0.7897E-01  0.2400E+02
     20.562  0.4749E-09  0.2400E+02
     20.703  0.0000E+00  0.2400E+02
     20.844  0.0000E+00  0.2400E+02
     20.985  0.0000E+00  0.2400E+02
     21.126  0.0000E+00  0.2400E+02
     21.267  0.0000E+00  0.2400E+02
     21.408  0.0000E+00  0.2400E+02
     21.549  0.0000E+00  0.2400E+02
     21.690  0.0000E+00  0.2400E+02
     21.831  0.0000E+00  0.2400E+02
     21.972  0.0000E+00  0.2400E+02
     22.113  0.0000E+00  0.2400E+02
