    6    6    1    1
  0.3696791E+01  0.2809692E-09  0.2809692E-09  0.2809692E-09  0.5000000E-15
  1.000000000000000E-004
  CAR 
 unknown system                          
     16      1     12
 
  0.0000000E+00  0.0000000E+00  0.0000000E+00  0.1000000E+01
      1        -18.272297   1.000000
      2        -11.989111   1.000000
      3         -2.863295   1.000000
      4         -2.863261   1.000000
      5         -2.149398   1.000000
      6          4.332052   1.000000
      7          4.477520   1.000000
      8          4.477524   1.000000
      9         12.229755   0.000000
     10         14.613077   0.000000
     11         14.627182   0.000000
     12         20.190028   0.000000
