   6   6   0   0
  0.3696791E+01  0.2809692E-09  0.2809692E-09  0.2809692E-09  0.5000000E-15
  1.000000000000000E-004
  CAR 
 unknown system                          
     21.89030636    -21.48058845  301      4.56001964      1.00000000
    -21.481  0.0000E+00  0.0000E+00
    -21.336  0.0000E+00  0.0000E+00
    -21.191  0.0000E+00  0.0000E+00
    -21.047  0.0000E+00  0.0000E+00
    -20.902  0.0000E+00  0.0000E+00
    -20.758  0.0000E+00  0.0000E+00
    -20.613  0.0000E+00  0.0000E+00
    -20.469  0.0000E+00  0.0000E+00
    -20.324  0.0000E+00  0.0000E+00
    -20.179  0.0000E+00  0.0000E+00
    -20.035  0.0000E+00  0.0000E+00
    -19.890  0.0000E+00  0.0000E+00
    -19.746  0.1531E-09  0.2214E-10
    -19.601  0.6409E-01  0.9265E-02
    -19.457  0.1282E+02  0.1863E+01
    -19.312  0.9479E+00  0.2000E+01
    -19.167  0.1703E-06  0.2000E+01
    -19.023  0.0000E+00  0.2000E+01
    -18.878  0.0000E+00  0.2000E+01
    -18.734  0.0000E+00  0.2000E+01
    -18.589  0.0000E+00  0.2000E+01
    -18.445  0.0000E+00  0.2000E+01
    -18.300  0.0000E+00  0.2000E+01
    -18.155  0.0000E+00  0.2000E+01
    -18.011  0.0000E+00  0.2000E+01
    -17.866  0.0000E+00  0.2000E+01
    -17.722  0.0000E+00  0.2000E+01
    -17.577  0.0000E+00  0.2000E+01
    -17.433  0.0000E+00  0.2000E+01
    -17.288  0.0000E+00  0.2000E+01
    -17.143  0.0000E+00  0.2000E+01
    -16.999  0.0000E+00  0.2000E+01
    -16.854  0.0000E+00  0.2000E+01
    -16.710  0.0000E+00  0.2000E+01
    -16.565  0.0000E+00  0.2000E+01
    -16.421  0.0000E+00  0.2000E+01
    -16.276  0.0000E+00  0.2000E+01
    -16.132  0.0000E+00  0.2000E+01
    -15.987  0.0000E+00  0.2000E+01
    -15.842  0.0000E+00  0.2000E+01
    -15.698  0.0000E+00  0.2000E+01
    -15.553  0.0000E+00  0.2000E+01
    -15.409  0.0000E+00  0.2000E+01
    -15.264  0.0000E+00  0.2000E+01
    -15.120  0.0000E+00  0.2000E+01
    -14.975  0.0000E+00  0.2000E+01
    -14.830  0.0000E+00  0.2000E+01
    -14.686  0.0000E+00  0.2000E+01
    -14.541  0.0000E+00  0.2000E+01
    -14.397  0.0000E+00  0.2000E+01
    -14.252  0.0000E+00  0.2000E+01
    -14.108  0.0000E+00  0.2000E+01
    -13.963  0.0000E+00  0.2000E+01
    -13.818  0.0000E+00  0.2000E+01
    -13.674  0.0000E+00  0.2000E+01
    -13.529  0.0000E+00  0.2000E+01
    -13.385  0.0000E+00  0.2000E+01
    -13.240  0.0000E+00  0.2000E+01
    -13.096  0.0000E+00  0.2000E+01
    -12.951  0.3432E-08  0.2000E+01
    -12.806  0.2287E+00  0.2033E+01
    -12.662  0.1326E+02  0.3950E+01
    -12.517  0.3476E+00  0.4000E+01
    -12.373  0.1022E-07  0.4000E+01
    -12.228  0.0000E+00  0.4000E+01
    -12.084  0.0000E+00  0.4000E+01
    -11.939  0.0000E+00  0.4000E+01
    -11.794  0.0000E+00  0.4000E+01
    -11.650  0.0000E+00  0.4000E+01
    -11.505  0.0000E+00  0.4000E+01
    -11.361  0.0000E+00  0.4000E+01
    -11.216  0.0000E+00  0.4000E+01
    -11.072  0.0000E+00  0.4000E+01
    -10.927  0.0000E+00  0.4000E+01
    -10.782  0.0000E+00  0.4000E+01
    -10.638  0.0000E+00  0.4000E+01
    -10.493  0.0000E+00  0.4000E+01
    -10.349  0.0000E+00  0.4000E+01
    -10.204  0.0000E+00  0.4000E+01
    -10.060  0.0000E+00  0.4000E+01
     -9.915  0.0000E+00  0.4000E+01
     -9.770  0.0000E+00  0.4000E+01
     -9.626  0.0000E+00  0.4000E+01
     -9.481  0.0000E+00  0.4000E+01
     -9.337  0.0000E+00  0.4000E+01
     -9.192  0.0000E+00  0.4000E+01
     -9.048  0.0000E+00  0.4000E+01
     -8.903  0.0000E+00  0.4000E+01
     -8.758  0.0000E+00  0.4000E+01
     -8.614  0.0000E+00  0.4000E+01
     -8.469  0.0000E+00  0.4000E+01
     -8.325  0.0000E+00  0.4000E+01
     -8.180  0.0000E+00  0.4000E+01
     -8.036  0.0000E+00  0.4000E+01
     -7.891  0.0000E+00  0.4000E+01
     -7.746  0.0000E+00  0.4000E+01
     -7.602  0.0000E+00  0.4000E+01
     -7.457  0.0000E+00  0.4000E+01
     -7.313  0.0000E+00  0.4000E+01
     -7.168  0.0000E+00  0.4000E+01
     -7.024  0.0000E+00  0.4000E+01
     -6.879  0.0000E+00  0.4000E+01
     -6.734  0.0000E+00  0.4000E+01
     -6.590  0.0000E+00  0.4000E+01
     -6.445  0.0000E+00  0.4000E+01
     -6.301  0.0000E+00  0.4000E+01
     -6.156  0.0000E+00  0.4000E+01
     -6.012  0.0000E+00  0.4000E+01
     -5.867  0.0000E+00  0.4000E+01
     -5.722  0.0000E+00  0.4000E+01
     -5.578  0.0000E+00  0.4000E+01
     -5.433  0.0000E+00  0.4000E+01
     -5.289  0.0000E+00  0.4000E+01
     -5.144  0.0000E+00  0.4000E+01
     -5.000  0.0000E+00  0.4000E+01
     -4.855  0.0000E+00  0.4000E+01
     -4.711  0.0000E+00  0.4000E+01
     -4.566  0.0000E+00  0.4000E+01
     -4.421  0.0000E+00  0.4000E+01
     -4.277  0.0000E+00  0.4000E+01
     -4.132  0.0000E+00  0.4000E+01
     -3.988  0.0000E+00  0.4000E+01
     -3.843  0.0000E+00  0.4000E+01
     -3.699  0.0000E+00  0.4000E+01
     -3.554  0.0000E+00  0.4000E+01
     -3.409  0.0000E+00  0.4000E+01
     -3.265  0.2474E-04  0.4000E+01
     -3.120  0.9183E+01  0.5328E+01
     -2.976  0.3230E+02  0.9997E+01
     -2.831  0.1860E-01  0.1000E+02
     -2.687  0.0000E+00  0.1000E+02
     -2.542  0.0000E+00  0.1000E+02
     -2.397  0.0000E+00  0.1000E+02
     -2.253  0.0000E+00  0.1000E+02
     -2.108  0.0000E+00  0.1000E+02
     -1.964  0.0000E+00  0.1000E+02
     -1.819  0.0000E+00  0.1000E+02
     -1.675  0.0000E+00  0.1000E+02
     -1.530  0.0000E+00  0.1000E+02
     -1.385  0.0000E+00  0.1000E+02
     -1.241  0.0000E+00  0.1000E+02
     -1.096  0.0000E+00  0.1000E+02
     -0.952  0.0000E+00  0.1000E+02
     -0.807  0.0000E+00  0.1000E+02
     -0.663  0.0000E+00  0.1000E+02
     -0.518  0.0000E+00  0.1000E+02
     -0.373  0.0000E+00  0.1000E+02
     -0.229  0.0000E+00  0.1000E+02
     -0.084  0.0000E+00  0.1000E+02
      0.060  0.0000E+00  0.1000E+02
      0.205  0.0000E+00  0.1000E+02
      0.349  0.0000E+00  0.1000E+02
      0.494  0.0000E+00  0.1000E+02
      0.639  0.0000E+00  0.1000E+02
      0.783  0.0000E+00  0.1000E+02
      0.928  0.0000E+00  0.1000E+02
      1.072  0.0000E+00  0.1000E+02
      1.217  0.0000E+00  0.1000E+02
      1.361  0.0000E+00  0.1000E+02
      1.506  0.0000E+00  0.1000E+02
      1.651  0.0000E+00  0.1000E+02
      1.795  0.0000E+00  0.1000E+02
      1.940  0.0000E+00  0.1000E+02
      2.084  0.0000E+00  0.1000E+02
      2.229  0.0000E+00  0.1000E+02
      2.373  0.0000E+00  0.1000E+02
      2.518  0.0000E+00  0.1000E+02
      2.663  0.0000E+00  0.1000E+02
      2.807  0.0000E+00  0.1000E+02
      2.952  0.0000E+00  0.1000E+02
      3.096  0.0000E+00  0.1000E+02
      3.241  0.0000E+00  0.1000E+02
      3.385  0.0000E+00  0.1000E+02
      3.530  0.0000E+00  0.1000E+02
      3.675  0.0000E+00  0.1000E+02
      3.819  0.0000E+00  0.1000E+02
      3.964  0.1152E-13  0.1000E+02
      4.108  0.1230E-02  0.1000E+02
      4.253  0.2196E+02  0.1318E+02
      4.397  0.1954E+02  0.1600E+02
      4.542  0.6532E-03  0.1600E+02
      4.687  0.0000E+00  0.1600E+02
      4.831  0.0000E+00  0.1600E+02
      4.976  0.0000E+00  0.1600E+02
      5.120  0.0000E+00  0.1600E+02
      5.265  0.0000E+00  0.1600E+02
      5.409  0.0000E+00  0.1600E+02
      5.554  0.0000E+00  0.1600E+02
      5.699  0.0000E+00  0.1600E+02
      5.843  0.0000E+00  0.1600E+02
      5.988  0.0000E+00  0.1600E+02
      6.132  0.0000E+00  0.1600E+02
      6.277  0.0000E+00  0.1600E+02
      6.421  0.0000E+00  0.1600E+02
      6.566  0.0000E+00  0.1600E+02
      6.710  0.0000E+00  0.1600E+02
      6.855  0.0000E+00  0.1600E+02
      7.000  0.0000E+00  0.1600E+02
      7.144  0.0000E+00  0.1600E+02
      7.289  0.0000E+00  0.1600E+02
      7.433  0.0000E+00  0.1600E+02
      7.578  0.0000E+00  0.1600E+02
      7.722  0.0000E+00  0.1600E+02
      7.867  0.0000E+00  0.1600E+02
      8.012  0.0000E+00  0.1600E+02
      8.156  0.0000E+00  0.1600E+02
      8.301  0.0000E+00  0.1600E+02
      8.445  0.0000E+00  0.1600E+02
      8.590  0.0000E+00  0.1600E+02
      8.734  0.0000E+00  0.1600E+02
      8.879  0.0000E+00  0.1600E+02
      9.024  0.0000E+00  0.1600E+02
      9.168  0.0000E+00  0.1600E+02
      9.313  0.0000E+00  0.1600E+02
      9.457  0.0000E+00  0.1600E+02
      9.602  0.0000E+00  0.1600E+02
      9.746  0.0000E+00  0.1600E+02
      9.891  0.0000E+00  0.1600E+02
     10.036  0.0000E+00  0.1600E+02
     10.180  0.0000E+00  0.1600E+02
     10.325  0.0000E+00  0.1600E+02
     10.469  0.0000E+00  0.1600E+02
     10.614  0.0000E+00  0.1600E+02
     10.758  0.0000E+00  0.1600E+02
     10.903  0.0000E+00  0.1600E+02
     11.048  0.0000E+00  0.1600E+02
     11.192  0.0000E+00  0.1600E+02
     11.337  0.0000E+00  0.1600E+02
     11.481  0.0000E+00  0.1600E+02
     11.626  0.5975E-10  0.1600E+02
     11.770  0.4269E-01  0.1601E+02
     11.915  0.1257E+02  0.1782E+02
     12.060  0.1223E+01  0.1800E+02
     12.204  0.3694E-06  0.1800E+02
     12.349  0.0000E+00  0.1800E+02
     12.493  0.0000E+00  0.1800E+02
     12.638  0.0000E+00  0.1800E+02
     12.782  0.0000E+00  0.1800E+02
     12.927  0.0000E+00  0.1800E+02
     13.072  0.0000E+00  0.1800E+02
     13.216  0.0000E+00  0.1800E+02
     13.361  0.0000E+00  0.1800E+02
     13.505  0.0000E+00  0.1800E+02
     13.650  0.0000E+00  0.1800E+02
     13.794  0.0000E+00  0.1800E+02
     13.939  0.0000E+00  0.1800E+02
     14.084  0.0000E+00  0.1800E+02
     14.228  0.0000E+00  0.1800E+02
     14.373  0.2494E-10  0.1800E+02
     14.517  0.4257E-01  0.1801E+02
     14.662  0.2404E+02  0.2148E+02
     14.806  0.3581E+01  0.2200E+02
     14.951  0.2500E-05  0.2200E+02
     15.096  0.0000E+00  0.2200E+02
     15.240  0.0000E+00  0.2200E+02
     15.385  0.0000E+00  0.2200E+02
     15.529  0.0000E+00  0.2200E+02
     15.674  0.0000E+00  0.2200E+02
     15.818  0.0000E+00  0.2200E+02
     15.963  0.0000E+00  0.2200E+02
     16.108  0.0000E+00  0.2200E+02
     16.252  0.0000E+00  0.2200E+02
     16.397  0.0000E+00  0.2200E+02
     16.541  0.0000E+00  0.2200E+02
     16.686  0.0000E+00  0.2200E+02
     16.830  0.0000E+00  0.2200E+02
     16.975  0.0000E+00  0.2200E+02
     17.120  0.0000E+00  0.2200E+02
     17.264  0.0000E+00  0.2200E+02
     17.409  0.0000E+00  0.2200E+02
     17.553  0.0000E+00  0.2200E+02
     17.698  0.0000E+00  0.2200E+02
     17.842  0.0000E+00  0.2200E+02
     17.987  0.0000E+00  0.2200E+02
     18.131  0.0000E+00  0.2200E+02
     18.276  0.0000E+00  0.2200E+02
     18.421  0.0000E+00  0.2200E+02
     18.565  0.0000E+00  0.2200E+02
     18.710  0.0000E+00  0.2200E+02
     18.854  0.0000E+00  0.2200E+02
     18.999  0.0000E+00  0.2200E+02
     19.143  0.0000E+00  0.2200E+02
     19.288  0.0000E+00  0.2200E+02
     19.433  0.0000E+00  0.2200E+02
     19.577  0.0000E+00  0.2200E+02
     19.722  0.1703E-06  0.2200E+02
     19.866  0.9479E+00  0.2214E+02
     20.011  0.1282E+02  0.2399E+02
     20.155  0.6409E-01  0.2400E+02
     20.300  0.1531E-09  0.2400E+02
     20.445  0.0000E+00  0.2400E+02
     20.589  0.0000E+00  0.2400E+02
     20.734  0.0000E+00  0.2400E+02
     20.878  0.0000E+00  0.2400E+02
     21.023  0.0000E+00  0.2400E+02
     21.167  0.0000E+00  0.2400E+02
     21.312  0.0000E+00  0.2400E+02
     21.457  0.0000E+00  0.2400E+02
     21.601  0.0000E+00  0.2400E+02
     21.746  0.0000E+00  0.2400E+02
     21.890  0.0000E+00  0.2400E+02
