    6    6    1    1
  0.3696791E+01  0.2809692E-09  0.2809692E-09  0.2809692E-09  0.5000000E-15
  1.000000000000000E-004
  CAR 
 unknown system                          
     16      1     12
 
  0.0000000E+00  0.0000000E+00  0.0000000E+00  0.1000000E+01
      1        -19.509184   1.000000
      2        -12.731057   1.000000
      3         -3.093096   1.000000
      4         -3.093094   1.000000
      5         -3.093091   1.000000
      6          4.250178   1.000000
      7          4.250219   1.000000
      8          4.250240   1.000000
      9         11.867251   0.000000
     10         14.621890   0.000000
     11         14.621915   0.000000
     12         19.918902   0.000000
