       N       E                     dE             d eps       ncg     rms          rms(c)
DAV:   1     0.117101115902E+03    0.11710E+03   -0.19520E+04    24   0.312E+03
DAV:   2    -0.245907402596E+02   -0.14169E+03   -0.11719E+03    28   0.410E+02
DAV:   3    -0.284178315143E+02   -0.38271E+01   -0.38178E+01    28   0.639E+01
DAV:   4    -0.284383954831E+02   -0.20564E-01   -0.20563E-01    24   0.443E+00
DAV:   5    -0.284386754920E+02   -0.28001E-03   -0.28000E-03    28   0.405E-01    0.119E+01
RMM:   6    -0.193653894510E+02    0.90733E+01   -0.65535E+00    24   0.224E+01    0.451E+00
RMM:   7    -0.194350539724E+02   -0.69665E-01   -0.37137E+00    24   0.200E+01    0.281E+00
RMM:   8    -0.197413486815E+02   -0.30629E+00   -0.16129E+00    24   0.141E+01    0.372E+00
RMM:   9    -0.194798134422E+02    0.26154E+00   -0.76553E-01    24   0.820E+00    0.321E-01
RMM:  10    -0.194826741282E+02   -0.28607E-02   -0.79261E-02    25   0.290E+00    0.133E-01
RMM:  11    -0.194826868900E+02   -0.12762E-04   -0.38521E-03    24   0.579E-01    0.390E-02
RMM:  12    -0.194827185604E+02   -0.31670E-04   -0.47432E-04    25   0.211E-01    0.323E-02
RMM:  13    -0.194828051957E+02   -0.86635E-04   -0.18358E-04    24   0.123E-01    0.560E-02
RMM:  14    -0.194827476929E+02    0.57503E-04   -0.37461E-05    24   0.598E-02    0.350E-02
RMM:  15    -0.194827271228E+02    0.20570E-04   -0.19724E-05    23   0.453E-02    0.213E-02
RMM:  16    -0.194827222475E+02    0.48753E-05   -0.29435E-06    16   0.181E-02    0.163E-02
RMM:  17    -0.194827126345E+02    0.96130E-05   -0.94688E-06    24   0.299E-02    0.507E-03
RMM:  18    -0.194827108510E+02    0.17835E-05   -0.78136E-07    12   0.114E-02    0.220E-03
RMM:  19    -0.194827097804E+02    0.10705E-05   -0.37242E-07    12   0.606E-03    0.406E-04
RMM:  20    -0.194827097332E+02    0.47221E-07   -0.21702E-08     8   0.210E-03
   1 F= -.19482710E+02 E0= -.19482710E+02  d E =-.179477E-17
