 vasp.6.4.3 19Mar24 (build Jun 21 2025 18:38:16) complex                        
  
 executed on             LinuxIFC date 2025.06.27  11:17:48
 running    1 mpi-ranks, on    1 nodes
 distrk:  each k-point on    1 cores,    1 groups
 distr:  one band on NCORE=   1 cores,    1 groups


--------------------------------------------------------------------------------------------------------


 INCAR:
   PREC = A
   ENCUT = 1500
   ISYM = 0
   ALGO = fast
   EDIFF = 1.000000e-06
   LREAL = .FALSE.
   NPAR = 2
   KPAR = 1
   NELMIN = 4
   ISIF = 2
   ISMEAR = 0
   SIGMA = 0.050000
   IBRION = -1
   NSW = 0
   LWAVE = F
   LCHARG = F
   PSTRESS = 0
   LASPH = T
   METAGGA = SCAN

 POTCAR:    PAW_PBE H 15Jun2001                   
 POTCAR:    PAW_PBE O 08Apr2002                   
 -----------------------------------------------------------------------------
|                                                                             |
|           W    W    AA    RRRRR   N    N  II  N    N   GGGG   !!!           |
|           W    W   A  A   R    R  NN   N  II  NN   N  G    G  !!!           |
|           W    W  A    A  R    R  N N  N  II  N N  N  G       !!!           |
|           W WW W  AAAAAA  RRRRR   N  N N  II  N  N N  G  GGG   !            |
|           WW  WW  A    A  R   R   N   NN  II  N   NN  G    G                |
|           W    W  A    A  R    R  N    N  II  N    N   GGGG   !!!           |
|                                                                             |
|     The value NPAR = 2 specified in the INCAR file was overwritten,         |
|     because it was not compatible with the 1 processes available:           |
|     NPAR = 1                                                                |
|     was used instead, please check that this makes sense for your           |
|     machine.                                                                |
|                                                                             |
 -----------------------------------------------------------------------------

 POTCAR:    PAW_PBE H 15Jun2001                   
   SHA256 =  030f79b5d3ab3cf0e668861823c8fb652ff669f3e15e46930bd03bfd63a607b6 H/POTCAR              
   COPYR  = (c) Copyright 15Jun2001 Georg Kresse                                                    
   COPYR  = This file is part of the software VASP. Any use, copying, and all other rights are regul
   COPYR  = If you do not have a valid VASP license, you may not use, copy or distribute this file. 
   VRHFIN =H: ultrasoft test                                                                        
   LEXCH  = PE                                                                                      
   EATOM  =    12.4884 eV,    0.9179 Ry                                                             
                                                                                                    
   TITEL  = PAW_PBE H 15Jun2001                                                                     
   LULTRA =        F    use ultrasoft PP ?                                                          
   IUNSCR =        0    unscreen: 0-lin 1-nonlin 2-no                                               
   RPACOR =    0.000    partial core radius                                                         
   POMASS =    1.000; ZVAL   =    1.000    mass and valenz                                          
   RCORE  =    1.100    outmost cutoff radius                                                       
   RWIGS  =    0.700; RWIGS  =    0.370    wigner-seitz radius (au A)                               
   ENMAX  =  250.000; ENMIN  =  200.000 eV                                                          
   RCLOC  =    0.701    cutoff for local pot                                                        
   LCOR   =        T    correct aug charges                                                         
   LPAW   =        T    paw PP                                                                      
   EAUG   =  400.000                                                                                
   RMAX   =    1.123    core radius for proj-oper                                                   
   RAUG   =    1.200    factor for augmentation sphere                                              
   RDEP   =    1.112    radius for radial grids                                                     
   RDEPT  =    0.926    core radius for aug-charge                                                  
                                                                                                    
   Atomic configuration                                                                             
    2 entries                                                                                       
     n  l   j            E        occ.                                                              
     1  0  0.50        -6.4927   1.0000                                                             
     2  1  0.50        -3.4015   0.0000                                                             
   Description                                                                                      
     l       E           TYP  RCUT    TYP  RCUT                                                     
     0     -6.4927494     23  1.100                                                                 
     0      6.8029130     23  1.100                                                                 
     1     -4.0817478     23  1.100                                                                 
  local pseudopotential read in
  atomic valenz-charges read in
  non local Contribution for L=           0  read in
    real space projection operators read in
  non local Contribution for L=           0  read in
    real space projection operators read in
  non local Contribution for L=           1  read in
    real space projection operators read in
    PAW grid and wavefunctions read in
 
   number of l-projection  operators is LMAX  =           3
   number of lm-projection operators is LMMAX =           5
 
 POTCAR:    PAW_PBE O 08Apr2002                   
   SHA256 =  818f92134a0a090dccd8ba1447fa70422a3b330e708bb4f08108d8ae51209ddf O/POTCAR              
   COPYR  = (c) Copyright 08Apr2002 Georg Kresse                                                    
   COPYR  = This file is part of the software VASP. Any use, copying, and all other rights are regul
   COPYR  = If you do not have a valid VASP license, you may not use, copy or distribute this file. 
   VRHFIN =O: s2p4                                                                                  
   LEXCH  = PE                                                                                      
   EATOM  =   432.3788 eV,   31.7789 Ry                                                             
                                                                                                    
   TITEL  = PAW_PBE O 08Apr2002                                                                     
   LULTRA =        F    use ultrasoft PP ?                                                          
   IUNSCR =        1    unscreen: 0-lin 1-nonlin 2-no                                               
   RPACOR =    1.200    partial core radius                                                         
   POMASS =   16.000; ZVAL   =    6.000    mass and valenz                                          
   RCORE  =    1.520    outmost cutoff radius                                                       
   RWIGS  =    1.550; RWIGS  =    0.820    wigner-seitz radius (au A)                               
   ENMAX  =  400.000; ENMIN  =  300.000 eV                                                          
   ICORE  =        2    local potential                                                             
   LCOR   =        T    correct aug charges                                                         
   LPAW   =        T    paw PP                                                                      
   EAUG   =  605.392                                                                                
   DEXC   =    0.000                                                                                
   RMAX   =    1.553    core radius for proj-oper                                                   
   RAUG   =    1.300    factor for augmentation sphere                                              
   RDEP   =    1.550    radius for radial grids                                                     
   RDEPT  =    1.329    core radius for aug-charge                                                  
                                                                                                    
   Atomic configuration                                                                             
    4 entries                                                                                       
     n  l   j            E        occ.                                                              
     1  0  0.50      -514.6923   2.0000                                                             
     2  0  0.50       -23.9615   2.0000                                                             
     2  1  0.50        -9.0305   4.0000                                                             
     3  2  1.50        -9.5241   0.0000                                                             
   Description                                                                                      
     l       E           TYP  RCUT    TYP  RCUT                                                     
     0    -23.9615318     23  1.200                                                                 
     0     -9.5240782     23  1.200                                                                 
     1     -9.0304911     23  1.520                                                                 
     1      8.1634956     23  1.520                                                                 
     2     -9.5240782      7  1.500                                                                 
  local pseudopotential read in
  partial core-charges read in
  partial kinetic energy density read in
  kinetic energy density of atom read in
  atomic valenz-charges read in
  non local Contribution for L=           0  read in
    real space projection operators read in
  non local Contribution for L=           0  read in
    real space projection operators read in
  non local Contribution for L=           1  read in
    real space projection operators read in
  non local Contribution for L=           1  read in
    real space projection operators read in
    PAW grid and wavefunctions read in
 
   number of l-projection  operators is LMAX  =           4
   number of lm-projection operators is LMMAX =           8
 
 -----------------------------------------------------------------------------
|                                                                             |
|               ----> ADVICE to this user running VASP <----                  |
|                                                                             |
|     You enforced a specific xc type in the INCAR file but a different       |
|     type was found in the POTCAR file.                                      |
|     I HOPE YOU KNOW WHAT YOU ARE DOING!                                     |
|                                                                             |
 -----------------------------------------------------------------------------

  PAW_PBE H 15Jun2001                   :
 energy of atom  1       EATOM=  -12.4884
 kinetic energy error for atom=    0.0000 (will be added to EATOM!!)
  PAW_PBE O 08Apr2002                   :
 energy of atom  2       EATOM= -432.3788
 kinetic energy error for atom=    0.0005 (will be added to EATOM!!)
 
 
 POSCAR: H  O
  positions in cartesian coordinates
  No initial velocities read in


 exchange-correlation table for SCAN
   RHO(1)=    0.500       N(1)  =     2000
   RHO(2)=  100.500       N(2)  =     4000
 


--------------------------------------------------------------------------------------------------------


 ion  position               nearest neighbor table
   1  0.750  0.750  0.250-   5 1.22   6 1.22
   2  0.250  0.250  0.250-   5 1.22   6 1.22
   3  0.250  0.750  0.750-   5 1.22   6 1.22
   4  0.750  0.250  0.750-   5 1.22   6 1.22
   5  0.000  0.000  0.000-   1 1.22   2 1.22   3 1.22   4 1.22
   6  0.500  0.500  0.500-   1 1.22   2 1.22   3 1.22   4 1.22
 

IMPORTANT INFORMATION: All symmetrisations will be switched off!
NOSYMM: (Re-)initialisation of all symmetry stuff for point group C_1.


----------------------------------------------------------------------------------------

                                     Primitive cell                                     

  volume of cell :      22.1807

  direct lattice vectors                    reciprocal lattice vectors
     2.809692000  0.000000000  0.000000000     0.355910897  0.000000000  0.000000000
     0.000000000  2.809692000  0.000000000     0.000000000  0.355910897  0.000000000
     0.000000000  0.000000000  2.809692000     0.000000000  0.000000000  0.355910897

  length of vectors
     2.809692000  2.809692000  2.809692000     0.355910897  0.355910897  0.355910897

  position of ions in fractional coordinates (direct lattice)
     0.750000000  0.750000000  0.250000000
     0.250000000  0.250000000  0.250000000
     0.250000000  0.750000000  0.750000000
     0.750000000  0.250000000  0.750000000
     0.000000000  0.000000000  0.000000000
     0.500000000  0.500000000  0.500000000

  ion indices of the primitive-cell ions
   primitive index   ion index
                 1           1
                 2           2
                 3           3
                 4           4
                 5           5
                 6           6

----------------------------------------------------------------------------------------

 
 
 KPOINTS: Gamma-point                             

Automatic generation of k-mesh.
 Grid dimensions read from file:
 generate k-points for:    1    1    1

 Generating k-lattice:

  Cartesian coordinates                     Fractional coordinates (reciprocal lattice)
     0.355910897  0.000000000  0.000000000     1.000000000  0.000000000  0.000000000
     0.000000000  0.355910897  0.000000000     0.000000000  1.000000000  0.000000000
     0.000000000  0.000000000  0.355910897     0.000000000  0.000000000  1.000000000

  Length of vectors
     0.355910897  0.355910897  0.355910897

  Shift w.r.t. Gamma in fractional coordinates (k-lattice)
     0.000000000  0.000000000  0.000000000

 
 Subroutine IBZKPT returns following result:
 ===========================================
 
 Found      1 irreducible k-points:
 
 Following reciprocal coordinates:
            Coordinates               Weight
  0.000000  0.000000  0.000000      1.000000
 
 Following cartesian coordinates:
            Coordinates               Weight
  0.000000  0.000000  0.000000      1.000000
 


--------------------------------------------------------------------------------------------------------




 Dimension of arrays:
   k-points           NKPTS =      1   k-points in BZ     NKDIM =      1   number of bands    NBANDS=     12
   number of dos      NEDOS =    301   number of ions     NIONS =      6
   non local maximal  LDIM  =      4   non local SUM 2l+1 LMDIM =      8
   total plane-waves  NPLWV =  46656
   max r-space proj   IRMAX =      1   max aug-charges    IRDMAX=  27486
   dimension x,y,z NGX =    36 NGY =   36 NGZ =   36
   dimension x,y,z NGXF=    72 NGYF=   72 NGZF=   72
   support grid    NGXF=    72 NGYF=   72 NGZF=   72
   ions per type =               4   2
   NGX,Y,Z   is equivalent  to a cutoff of  21.30, 21.30, 21.30 a.u.
   NGXF,Y,Z  is equivalent  to a cutoff of  42.60, 42.60, 42.60 a.u.

 SYSTEM =  unknown system                          
 POSCAR =  H  O                                    

 Startparameter for this run:
   NWRITE =      2    write-flag & timer
   PREC   = a         normal or accurate (medium, high low for compatibility)
   ISTART =      0    job   : 0-new  1-cont  2-samecut
   ICHARG =      2    charge: 1-file 2-atom 10-const
   ISPIN  =      1    spin polarized calculation?
   LNONCOLLINEAR =      F non collinear calculations
   LSORBIT =      F    spin-orbit coupling
   INIWAV =      1    electr: 0-lowe 1-rand  2-diag
   LASPH  =      T    aspherical Exc in radial PAW
 Electronic Relaxation 1
   ENCUT  = 1500.0 eV 110.25 Ry   10.50 a.u.   8.87  8.87  8.87*2*pi/ulx,y,z
   ENINI  = 1500.0     initial cutoff
   ENAUG  =  605.4 eV  augmentation charge cutoff
   NELM   =     60;   NELMIN=  4; NELMDL=  0     # of ELM steps 
   EDIFF  = 0.1E-05   stopping-criterion for ELM
   LREAL  =      F    real-space projection
   NLSPLINE    = F    spline interpolate recip. space projectors
   LCOMPAT=      F    compatible to vasp.4.4
   GGA_COMPAT  = T    GGA compatible to vasp.4.4-vasp.4.6
   LMAXPAW     = -100 max onsite density
   LMAXMIX     =    2 max onsite mixed and CHGCAR
   VOSKOWN=      0    Vosko Wilk Nusair interpolation
   ROPT   =    0.00000   0.00000
 Ionic relaxation
   EDIFFG = 0.1E-04   stopping-criterion for IOM
   NSW    =      0    number of steps for IOM
   NBLOCK =      1;   KBLOCK =      1    inner block; outer block 
   IBRION =     -1    ionic relax: 0-MD 1-quasi-New 2-CG
   NFREE  =      0    steps in history (QN), initial steepest desc. (CG)
   ISIF   =      2    stress and relaxation
   IWAVPR =     10    prediction:  0-non 1-charg 2-wave 3-comb
   ISYM   =      0    0-nonsym 1-usesym 2-fastsym
   LCORR  =      T    Harris-Foulkes like correction to forces

   POTIM  = 0.5000    time-step for ionic-motion
   TEIN   =    0.0    initial temperature
   TEBEG  =    0.0;   TEEND  =   0.0 temperature during run
   SMASS  =  -3.00    Nose mass-parameter (am)
   estimated Nose-frequenzy (Omega)   =  0.10E-29 period in steps = 0.13E+47 mass=  -0.180E-27a.u.
   SCALEE = 1.0000    scale energy and forces
   NPACO  =    256;   APACO  = 10.0  distance and # of slots for P.C.
   PSTRESS=    0.0 pullay stress

  Mass of Ions in am
   POMASS =   1.00 16.00
  Ionic Valenz
   ZVAL   =   1.00  6.00
  Atomic Wigner-Seitz radii
   RWIGS  =  -1.00 -1.00
  virtual crystal weights 
   VCA    =   1.00  1.00
   NELECT =      16.0000    total number of electrons
   NUPDOWN=      -1.0000    fix difference up-down

 DOS related values:
   EMIN   =  10.00;   EMAX   =-10.00  energy-range for DOS
   EFERMI =   0.00;   METHOD = LEGACY      
   ISMEAR =     0;   SIGMA  =   0.05  broadening in eV -4-tet -1-fermi 0-gaus

 Electronic relaxation 2 (details)
   IALGO  =     68    algorithm
   LDIAG  =      T    sub-space diagonalisation (order eigenvalues)
   LSUBROT=      F    optimize rotation matrix (better conditioning)
   TURBO    =      0    0=normal 1=particle mesh
   IRESTART =      0    0=no restart 2=restart with 2 vectors
   NREBOOT  =      0    no. of reboots
   NMIN     =      0    reboot dimension
   EREF     =   0.00    reference energy to select bands
   IMIX   =      4    mixing-type and parameters
     AMIX     =   0.40;   BMIX     =  1.00
     AMIX_MAG =   1.60;   BMIX_MAG =  1.00
     AMIN     =   0.10
     WC   =   100.;   INIMIX=   1;  MIXPRE=   1;  MAXMIX= -45

 Intra band minimization:
   WEIMIN = 0.0000     energy-eigenvalue tresh-hold
   EBREAK =  0.21E-07  absolut break condition
   DEPER  =   0.30     relativ break condition  

   TIME   =   0.40     timestep for ELM

  volume/ion in A,a.u.               =       3.70        24.95
  Fermi-wavevector in a.u.,A,eV,Ry     =   1.468214  2.774523 29.329442  2.155653
  Thomas-Fermi vector in A             =   2.583739
 
 Write flags
   LWAVE        =      F    write WAVECAR
   LDOWNSAMPLE  =      F    k-point downsampling of WAVECAR
   LCHARG       =      F    write CHGCAR
   LVTOT        =      F    write LOCPOT, total local potential
   LVHAR        =      F    write LOCPOT, Hartree potential only
   WRT_POTENTIAL= false  ! write potential to hdf5 file
   LELF         =      F    write electronic localiz. function (ELF)
   LORBIT       =      0    0 simple, 1 ext, 2 COOP (PROOUT), +10 PAW based schemes


 Dipole corrections
   LMONO      =      F    monopole corrections only (constant potential shift)
   LDIPOL     =      F    correct potential (dipole corrections)
   IDIPOL     =      0    1-x, 2-y, 3-z, 4-all directions 
   EPSILON    =  1.0000000 bulk dielectric constant
   LVACPOTAV  =      F  vacuum potentials using an averaging scheme for the charge density
   VACPOTFLAT =  0.1000000 required flatness to determine vacuum potential
 Exchange correlation treatment:
   METAGGA = SCAN    functional components
   XC_C    = 1    coefficients multiplying the functional components
   LIBXC   =     F    Libxc                    
   VOSKOWN =     0    Vosko Wilk Nusair interpolation
   LHFCALC =     F    Hartree Fock is set to
   LHFONE  =     F    Hartree Fock one center treatment
   AEXX    =    0.0000 exact exchange contribution

 Parameters of functionals:
   SCAN:
     P1 =  0.000000E+00
     P2 =  0.000000E+00
     P3 =  0.000000E+00
 
 Accuracy and mixing parameters for tau-dependent meta-GGA functionals:
   LMAXTAU = 6
   LMIXTAU = F
 
 Van der Waals corrections
   IVDW    =     0    specifies the selected vdW correction

 Linear response parameters
   LEPSILON=     F    determine dielectric tensor
   LRPA    =     F    only Hartree local field effects (RPA)
   LNABLA  =     F    use nabla operator in PAW spheres
   LVEL    =     F    velocity operator in full k-point grid
   CSHIFT  =0.1000    complex shift for real part using Kramers Kronig
   OMEGAMAX=  -1.0    maximum frequency
   DEG_THRESHOLD= 0.2000000E-02 threshold for treating states as degnerate
   RTIME   =   -0.100 relaxation time in fs
  (WPLASMAI=    0.000 imaginary part of plasma frequency in eV, 0.658/RTIME)
   DFIELD  = 0.0000000 0.0000000 0.0000000 field for delta impulse in time
 
  Optional k-point grid parameters
   LKPOINTS_OPT  =     F    use optional k-point grid
   KPOINTS_OPT_MODE=     1    mode for optional k-point grid
 
 Orbital magnetization related:
   ORBITALMAG=     F  switch on orbital magnetization
   LCHIMAG   =     F  perturbation theory with respect to B field
   DQ        =  0.001000  dq finite difference perturbation B field
   LLRAUG    =     F  two centre corrections for induced B field
   LBONE     =     F  B-component reconstruction in AE one-centre
   LVGVCALC  =     T  calculate vGv susceptibility
   LVGVAPPL  =     F  apply vGv susceptibility instead of pGv for G=0

 Random number generation:
   RANDOM_GENERATOR = DEFAULT
   PCG_SEED         = not used


--------------------------------------------------------------------------------------------------------


 Static calculation
 charge density and potential will be updated during run
 non-spin polarized calculation
 RMM-DIIS sequential band-by-band and
  variant of blocked Davidson during initial phase
 perform sub-space diagonalisation
    before iterative eigenvector-optimisation
 modified Broyden-mixing scheme, WC =      100.0
 initial mixing is a Kerker type mixing with AMIX =  0.4000 and BMIX =      1.0000
 Hartree-type preconditioning will be used
 using additional bands            4
 reciprocal scheme for non local part
 use partial core corrections
 calculate Harris-corrections to forces 
   (improved forces if not selfconsistent)
 use gradient corrections 
 use of overlap-Matrix (Vanderbilt PP)
 Gauss-broadening in eV      SIGMA  =   0.05


--------------------------------------------------------------------------------------------------------


  energy-cutoff  :     1500.00
  volume of cell :       22.18
      direct lattice vectors                 reciprocal lattice vectors
     2.809692000  0.000000000  0.000000000     0.355910897  0.000000000  0.000000000
     0.000000000  2.809692000  0.000000000     0.000000000  0.355910897  0.000000000
     0.000000000  0.000000000  2.809692000     0.000000000  0.000000000  0.355910897

  length of vectors
     2.809692000  2.809692000  2.809692000     0.355910897  0.355910897  0.355910897


 
 k-points in units of 2pi/SCALE and weight: Gamma-point                             
   0.00000000  0.00000000  0.00000000       1.000
 
 k-points in reciprocal lattice and weights: Gamma-point                             
   0.00000000  0.00000000  0.00000000       1.000
 
 position of ions in fractional coordinates (direct lattice) 
   0.75000000  0.75000000  0.25000000
   0.25000000  0.25000000  0.25000000
   0.25000000  0.75000000  0.75000000
   0.75000000  0.25000000  0.75000000
   0.00000000  0.00000000  0.00000000
   0.50000000  0.50000000  0.50000000
 
 position of ions in cartesian coordinates  (Angst):
   2.10726900  2.10726900  0.70242300
   0.70242300  0.70242300  0.70242300
   0.70242300  2.10726900  2.10726900
   2.10726900  0.70242300  2.10726900
   0.00000000  0.00000000  0.00000000
   1.40484600  1.40484600  1.40484600
 


--------------------------------------------------------------------------------------------------------


 k-point     1 :   0.0000 0.0000 0.0000  plane waves:    2945

 maximum and minimum number of plane-waves per node :      2945     2945

 maximum number of plane-waves:      2945
 maximum index in each direction: 
   IXMAX=    8   IYMAX=    8   IZMAX=    8
   IXMIN=   -8   IYMIN=   -8   IZMIN=   -8


 serial   3D FFT for wavefunctions
 parallel 3D FFT for charge:
    minimum data exchange during FFTs selected (reduces bandwidth)


 total amount of memory used by VASP MPI-rank0    72073. kBytes
=======================================================================

   base      :      30000. kBytes
   nonl-proj :        659. kBytes
   fftplans  :      13060. kBytes
   grid      :      27764. kBytes
   one-center:         18. kBytes
   wavefun   :        572. kBytes
 
     INWAV:  cpu time      0.0000: real time      0.0000
 Broyden mixing: mesh for mixing (old mesh)
   NGX = 17   NGY = 17   NGZ = 17
  (NGX  = 72   NGY  = 72   NGZ  = 72)
  gives a total of   4913 points

 initial charge density was supplied:
 charge density of overlapping atoms calculated
 number of electron      16.0000000 magnetization 
 keeping initial charge density in first step


--------------------------------------------------------------------------------------------------------


 Maximum index for augmentation-charges        26529 (set IRDMAX)


--------------------------------------------------------------------------------------------------------


 First call to EWALD:  gamma=   0.631
 Maximum number of real-space cells 3x 3x 3
 Maximum number of reciprocal cells 3x 3x 3

    FEWALD:  cpu time      0.0005: real time      0.0005


--------------------------------------- Ionic step        1  -------------------------------------------




--------------------------------------- Iteration      1(   1)  ---------------------------------------


    POTLOK:  cpu time      0.4897: real time      0.4900
    SETDIJ:  cpu time      0.9093: real time      0.9093
     EDDAV:  cpu time      0.1761: real time      0.1761
       DOS:  cpu time      0.0017: real time      0.0017
    --------------------------------------------
      LOOP:  cpu time      1.5769: real time      1.5772

 eigenvalue-minimisations  :    24
 total energy-change (2. order) : 0.1171011E+03  (-0.1951982E+04)
 number of electron      16.0000000 magnetization 
 augmentation part       16.0000000 magnetization 

 Free energy of the ion-electron system (eV)
  ---------------------------------------------------
  alpha Z        PSCENC =        40.44071196
  Ewald energy   TEWEN  =      -767.75865402
  -Hartree energ DENC   =      -176.87332325
  -exchange      EXHF   =         0.00000000
  -V(xc)+E(xc)   XCENC  =        78.14942493
  PAW double counting   =       689.98132605     -696.05709516
  entropy T*S    EENTRO =        -0.00000000
  eigenvalues    EBANDS =        34.50863863
  atomic energy  EATOM  =       914.71008676
  Solvation  Ediel_sol  =         0.00000000
  ---------------------------------------------------
  free energy    TOTEN  =       117.10111590 eV

  energy without entropy =      117.10111590  energy(sigma->0) =      117.10111590


--------------------------------------------------------------------------------------------------------




--------------------------------------- Iteration      1(   2)  ---------------------------------------


     EDDAV:  cpu time      0.1189: real time      0.1189
       DOS:  cpu time      0.0001: real time      0.0001
    --------------------------------------------
      LOOP:  cpu time      0.1190: real time      0.1190

 eigenvalue-minimisations  :    28
 total energy-change (2. order) :-0.1416919E+03  (-0.1171939E+03)
 number of electron      16.0000000 magnetization 
 augmentation part       16.0000000 magnetization 

 Free energy of the ion-electron system (eV)
  ---------------------------------------------------
  alpha Z        PSCENC =        40.44071196
  Ewald energy   TEWEN  =      -767.75865402
  -Hartree energ DENC   =      -176.87332325
  -exchange      EXHF   =         0.00000000
  -V(xc)+E(xc)   XCENC  =        78.14942493
  PAW double counting   =       689.98132605     -696.05709516
  entropy T*S    EENTRO =        -0.00000000
  eigenvalues    EBANDS =      -107.18321753
  atomic energy  EATOM  =       914.71008676
  Solvation  Ediel_sol  =         0.00000000
  ---------------------------------------------------
  free energy    TOTEN  =       -24.59074026 eV

  energy without entropy =      -24.59074026  energy(sigma->0) =      -24.59074026


--------------------------------------------------------------------------------------------------------




--------------------------------------- Iteration      1(   3)  ---------------------------------------


     EDDAV:  cpu time      0.1209: real time      0.1209
       DOS:  cpu time      0.0001: real time      0.0001
    --------------------------------------------
      LOOP:  cpu time      0.1210: real time      0.1210

 eigenvalue-minimisations  :    28
 total energy-change (2. order) :-0.3827091E+01  (-0.3817761E+01)
 number of electron      16.0000000 magnetization 
 augmentation part       16.0000000 magnetization 

 Free energy of the ion-electron system (eV)
  ---------------------------------------------------
  alpha Z        PSCENC =        40.44071196
  Ewald energy   TEWEN  =      -767.75865402
  -Hartree energ DENC   =      -176.87332325
  -exchange      EXHF   =         0.00000000
  -V(xc)+E(xc)   XCENC  =        78.14942493
  PAW double counting   =       689.98132605     -696.05709516
  entropy T*S    EENTRO =        -0.00000000
  eigenvalues    EBANDS =      -111.01030878
  atomic energy  EATOM  =       914.71008676
  Solvation  Ediel_sol  =         0.00000000
  ---------------------------------------------------
  free energy    TOTEN  =       -28.41783151 eV

  energy without entropy =      -28.41783151  energy(sigma->0) =      -28.41783151


--------------------------------------------------------------------------------------------------------




--------------------------------------- Iteration      1(   4)  ---------------------------------------


     EDDAV:  cpu time      0.1101: real time      0.1101
       DOS:  cpu time      0.0001: real time      0.0001
    --------------------------------------------
      LOOP:  cpu time      0.1101: real time      0.1101

 eigenvalue-minimisations  :    24
 total energy-change (2. order) :-0.2056397E-01  (-0.2056322E-01)
 number of electron      16.0000000 magnetization 
 augmentation part       16.0000000 magnetization 

 Free energy of the ion-electron system (eV)
  ---------------------------------------------------
  alpha Z        PSCENC =        40.44071196
  Ewald energy   TEWEN  =      -767.75865402
  -Hartree energ DENC   =      -176.87332325
  -exchange      EXHF   =         0.00000000
  -V(xc)+E(xc)   XCENC  =        78.14942493
  PAW double counting   =       689.98132605     -696.05709516
  entropy T*S    EENTRO =        -0.00000000
  eigenvalues    EBANDS =      -111.03087275
  atomic energy  EATOM  =       914.71008676
  Solvation  Ediel_sol  =         0.00000000
  ---------------------------------------------------
  free energy    TOTEN  =       -28.43839548 eV

  energy without entropy =      -28.43839548  energy(sigma->0) =      -28.43839548


--------------------------------------------------------------------------------------------------------




--------------------------------------- Iteration      1(   5)  ---------------------------------------


     EDDAV:  cpu time      0.1209: real time      0.1209
       DOS:  cpu time      0.0001: real time      0.0001
    CHARGE:  cpu time      0.0319: real time      0.0319
    MIXING:  cpu time      0.0071: real time      0.0071
    --------------------------------------------
      LOOP:  cpu time      0.1599: real time      0.1599

 eigenvalue-minimisations  :    28
 total energy-change (2. order) :-0.2800089E-03  (-0.2800047E-03)
 number of electron      16.0000001 magnetization 
 augmentation part        1.8138585 magnetization 

 Broyden mixing:
  rms(total) = 0.11940E+01    rms(broyden)= 0.11940E+01
  rms(prec ) = 0.35952E+01
  weight for this iteration     100.00

 Free energy of the ion-electron system (eV)
  ---------------------------------------------------
  alpha Z        PSCENC =        40.44071196
  Ewald energy   TEWEN  =      -767.75865402
  -Hartree energ DENC   =      -176.87332325
  -exchange      EXHF   =         0.00000000
  -V(xc)+E(xc)   XCENC  =        78.14942493
  PAW double counting   =       689.98132605     -696.05709516
  entropy T*S    EENTRO =        -0.00000000
  eigenvalues    EBANDS =      -111.03115276
  atomic energy  EATOM  =       914.71008676
  Solvation  Ediel_sol  =         0.00000000
  ---------------------------------------------------
  free energy    TOTEN  =       -28.43867549 eV

  energy without entropy =      -28.43867549  energy(sigma->0) =      -28.43867549


--------------------------------------------------------------------------------------------------------




--------------------------------------- Iteration      1(   6)  ---------------------------------------


    POTLOK:  cpu time      0.4843: real time      0.4843
    SETDIJ:  cpu time      0.7526: real time      0.7526
    EDDIAG:  cpu time      0.0224: real time      0.0224
  RMM-DIIS:  cpu time      0.1257: real time      0.1257
    ORTHCH:  cpu time      0.0003: real time      0.0003
       DOS:  cpu time      0.0000: real time      0.0000
    CHARGE:  cpu time      0.0194: real time      0.0194
    MIXING:  cpu time      0.0072: real time      0.0072
    --------------------------------------------
      LOOP:  cpu time      1.4120: real time      1.4119

 eigenvalue-minimisations  :    24
 total energy-change (2. order) : 0.9073286E+01  (-0.6553494E+00)
 number of electron      16.0000001 magnetization 
 augmentation part        1.7004586 magnetization 

 Broyden mixing:
  rms(total) = 0.45120E+00    rms(broyden)= 0.45120E+00
  rms(prec ) = 0.13381E+01
  weight for this iteration     100.00

 eigenvalues of (default mixing * dielectric matrix)
  average eigenvalue GAMMA=   1.3916
  1.3916

 Free energy of the ion-electron system (eV)
  ---------------------------------------------------
  alpha Z        PSCENC =        40.44071196
  Ewald energy   TEWEN  =      -767.75865402
  -Hartree energ DENC   =      -210.10648343
  -exchange      EXHF   =         0.00000000
  -V(xc)+E(xc)   XCENC  =        84.37546356
  PAW double counting   =       886.20891844     -893.12613985
  entropy T*S    EENTRO =        -0.00000000
  eigenvalues    EBANDS =       -74.10929287
  atomic energy  EATOM  =       914.71008676
  Solvation  Ediel_sol  =         0.00000000
  ---------------------------------------------------
  free energy    TOTEN  =       -19.36538945 eV

  energy without entropy =      -19.36538945  energy(sigma->0) =      -19.36538945


--------------------------------------------------------------------------------------------------------




--------------------------------------- Iteration      1(   7)  ---------------------------------------


    POTLOK:  cpu time      0.3690: real time      0.3690
    SETDIJ:  cpu time      0.7332: real time      0.7332
    EDDIAG:  cpu time      0.0201: real time      0.0201
  RMM-DIIS:  cpu time      0.1193: real time      0.1193
    ORTHCH:  cpu time      0.0002: real time      0.0002
       DOS:  cpu time      0.0000: real time      0.0000
    CHARGE:  cpu time      0.0195: real time      0.0195
    MIXING:  cpu time      0.0041: real time      0.0041
    --------------------------------------------
      LOOP:  cpu time      1.2655: real time      1.2656

 eigenvalue-minimisations  :    24
 total energy-change (2. order) :-0.6966452E-01  (-0.3713738E+00)
 number of electron      16.0000001 magnetization 
 augmentation part        1.6119060 magnetization 

 Broyden mixing:
  rms(total) = 0.28106E+00    rms(broyden)= 0.28106E+00
  rms(prec ) = 0.58550E+00
  weight for this iteration     100.00

 eigenvalues of (default mixing * dielectric matrix)
  average eigenvalue GAMMA=   2.6014
  1.7991  3.4036

 Free energy of the ion-electron system (eV)
  ---------------------------------------------------
  alpha Z        PSCENC =        40.44071196
  Ewald energy   TEWEN  =      -767.75865402
  -Hartree energ DENC   =      -228.38573314
  -exchange      EXHF   =         0.00000000
  -V(xc)+E(xc)   XCENC  =        85.89331391
  PAW double counting   =      1060.02971138    -1067.54308522
  entropy T*S    EENTRO =        -0.00000000
  eigenvalues    EBANDS =       -56.82140561
  atomic energy  EATOM  =       914.71008676
  Solvation  Ediel_sol  =         0.00000000
  ---------------------------------------------------
  free energy    TOTEN  =       -19.43505397 eV

  energy without entropy =      -19.43505397  energy(sigma->0) =      -19.43505397


--------------------------------------------------------------------------------------------------------




--------------------------------------- Iteration      1(   8)  ---------------------------------------


    POTLOK:  cpu time      0.3640: real time      0.3640
    SETDIJ:  cpu time      0.7348: real time      0.7348
    EDDIAG:  cpu time      0.0207: real time      0.0207
  RMM-DIIS:  cpu time      0.1209: real time      0.1209
    ORTHCH:  cpu time      0.0002: real time      0.0002
       DOS:  cpu time      0.0000: real time      0.0000
    CHARGE:  cpu time      0.0217: real time      0.0217
    MIXING:  cpu time      0.0043: real time      0.0043
    --------------------------------------------
      LOOP:  cpu time      1.2667: real time      1.2667

 eigenvalue-minimisations  :    24
 total energy-change (2. order) :-0.3062947E+00  (-0.1612923E+00)
 number of electron      16.0000001 magnetization 
 augmentation part        1.6739401 magnetization 

 Broyden mixing:
  rms(total) = 0.37250E+00    rms(broyden)= 0.37250E+00
  rms(prec ) = 0.91076E+00
  weight for this iteration     100.00

 eigenvalues of (default mixing * dielectric matrix)
  average eigenvalue GAMMA=   1.6617
  2.6489  1.1682  1.1682

 Free energy of the ion-electron system (eV)
  ---------------------------------------------------
  alpha Z        PSCENC =        40.44071196
  Ewald energy   TEWEN  =      -767.75865402
  -Hartree energ DENC   =      -218.90060953
  -exchange      EXHF   =         0.00000000
  -V(xc)+E(xc)   XCENC  =        86.10345068
  PAW double counting   =      1231.78389596    -1239.18282612
  entropy T*S    EENTRO =        -0.00000000
  eigenvalues    EBANDS =       -66.93740438
  atomic energy  EATOM  =       914.71008676
  Solvation  Ediel_sol  =         0.00000000
  ---------------------------------------------------
  free energy    TOTEN  =       -19.74134868 eV

  energy without entropy =      -19.74134868  energy(sigma->0) =      -19.74134868


--------------------------------------------------------------------------------------------------------




--------------------------------------- Iteration      1(   9)  ---------------------------------------


    POTLOK:  cpu time      0.3710: real time      0.3710
    SETDIJ:  cpu time      0.7328: real time      0.7328
    EDDIAG:  cpu time      0.0201: real time      0.0201
  RMM-DIIS:  cpu time      0.1199: real time      0.1199
    ORTHCH:  cpu time      0.0002: real time      0.0002
       DOS:  cpu time      0.0000: real time      0.0000
    CHARGE:  cpu time      0.0195: real time      0.0195
    MIXING:  cpu time      0.0043: real time      0.0043
    --------------------------------------------
      LOOP:  cpu time      1.2679: real time      1.2679

 eigenvalue-minimisations  :    24
 total energy-change (2. order) : 0.2615352E+00  (-0.7655324E-01)
 number of electron      16.0000001 magnetization 
 augmentation part        1.6356294 magnetization 

 Broyden mixing:
  rms(total) = 0.32084E-01    rms(broyden)= 0.32084E-01
  rms(prec ) = 0.75446E-01
  weight for this iteration     100.00

 eigenvalues of (default mixing * dielectric matrix)
  average eigenvalue GAMMA=   1.3657
  2.6218  1.1259  1.1259  0.5890

 Free energy of the ion-electron system (eV)
  ---------------------------------------------------
  alpha Z        PSCENC =        40.44071196
  Ewald energy   TEWEN  =      -767.75865402
  -Hartree energ DENC   =      -228.29482089
  -exchange      EXHF   =         0.00000000
  -V(xc)+E(xc)   XCENC  =        86.63227629
  PAW double counting   =      1198.13185794    -1205.72413565
  entropy T*S    EENTRO =        -0.00000000
  eigenvalues    EBANDS =       -57.61713583
  atomic energy  EATOM  =       914.71008676
  Solvation  Ediel_sol  =         0.00000000
  ---------------------------------------------------
  free energy    TOTEN  =       -19.47981344 eV

  energy without entropy =      -19.47981344  energy(sigma->0) =      -19.47981344


--------------------------------------------------------------------------------------------------------




--------------------------------------- Iteration      1(  10)  ---------------------------------------


    POTLOK:  cpu time      0.3640: real time      0.3641
    SETDIJ:  cpu time      0.7334: real time      0.7334
    EDDIAG:  cpu time      0.0203: real time      0.0203
  RMM-DIIS:  cpu time      0.1232: real time      0.1232
    ORTHCH:  cpu time      0.0002: real time      0.0002
       DOS:  cpu time      0.0000: real time      0.0000
    CHARGE:  cpu time      0.0193: real time      0.0193
    MIXING:  cpu time      0.0043: real time      0.0043
    --------------------------------------------
      LOOP:  cpu time      1.2649: real time      1.2649

 eigenvalue-minimisations  :    25
 total energy-change (2. order) :-0.2860686E-02  (-0.7926066E-02)
 number of electron      16.0000001 magnetization 
 augmentation part        1.6266300 magnetization 

 Broyden mixing:
  rms(total) = 0.13285E-01    rms(broyden)= 0.13285E-01
  rms(prec ) = 0.31048E-01
  weight for this iteration     100.00

 eigenvalues of (default mixing * dielectric matrix)
  average eigenvalue GAMMA=   1.4688
  2.7181  1.8843  1.0994  1.0994  0.5431

 Free energy of the ion-electron system (eV)
  ---------------------------------------------------
  alpha Z        PSCENC =        40.44071196
  Ewald energy   TEWEN  =      -767.75865402
  -Hartree energ DENC   =      -228.71167866
  -exchange      EXHF   =         0.00000000
  -V(xc)+E(xc)   XCENC  =        86.45053614
  PAW double counting   =      1194.14468625    -1201.75375880
  entropy T*S    EENTRO =        -0.00000000
  eigenvalues    EBANDS =       -57.00460376
  atomic energy  EATOM  =       914.71008676
  Solvation  Ediel_sol  =         0.00000000
  ---------------------------------------------------
  free energy    TOTEN  =       -19.48267413 eV

  energy without entropy =      -19.48267413  energy(sigma->0) =      -19.48267413


--------------------------------------------------------------------------------------------------------




--------------------------------------- Iteration      1(  11)  ---------------------------------------


    POTLOK:  cpu time      0.3645: real time      0.3645
    SETDIJ:  cpu time      0.7336: real time      0.7336
    EDDIAG:  cpu time      0.0201: real time      0.0201
  RMM-DIIS:  cpu time      0.1195: real time      0.1195
    ORTHCH:  cpu time      0.0003: real time      0.0003
       DOS:  cpu time      0.0000: real time      0.0000
    CHARGE:  cpu time      0.0194: real time      0.0194
    MIXING:  cpu time      0.0044: real time      0.0044
    --------------------------------------------
      LOOP:  cpu time      1.2618: real time      1.2618

 eigenvalue-minimisations  :    24
 total energy-change (2. order) :-0.1276179E-04  (-0.3852117E-03)
 number of electron      16.0000001 magnetization 
 augmentation part        1.6264958 magnetization 

 Broyden mixing:
  rms(total) = 0.38984E-02    rms(broyden)= 0.38984E-02
  rms(prec ) = 0.97410E-02
  weight for this iteration     100.00

 eigenvalues of (default mixing * dielectric matrix)
  average eigenvalue GAMMA=   1.4112
  2.4070  2.4070  1.1579  1.1579  0.6687  0.6687

 Free energy of the ion-electron system (eV)
  ---------------------------------------------------
  alpha Z        PSCENC =        40.44071196
  Ewald energy   TEWEN  =      -767.75865402
  -Hartree energ DENC   =      -228.29246889
  -exchange      EXHF   =         0.00000000
  -V(xc)+E(xc)   XCENC  =        86.40937068
  PAW double counting   =      1194.24696710    -1201.85485065
  entropy T*S    EENTRO =        -0.00000000
  eigenvalues    EBANDS =       -57.38384983
  atomic energy  EATOM  =       914.71008676
  Solvation  Ediel_sol  =         0.00000000
  ---------------------------------------------------
  free energy    TOTEN  =       -19.48268689 eV

  energy without entropy =      -19.48268689  energy(sigma->0) =      -19.48268689


--------------------------------------------------------------------------------------------------------




--------------------------------------- Iteration      1(  12)  ---------------------------------------


    POTLOK:  cpu time      0.3640: real time      0.3640
    SETDIJ:  cpu time      0.7330: real time      0.7330
    EDDIAG:  cpu time      0.0196: real time      0.0196
  RMM-DIIS:  cpu time      0.1236: real time      0.1236
    ORTHCH:  cpu time      0.0003: real time      0.0003
       DOS:  cpu time      0.0000: real time      0.0000
    CHARGE:  cpu time      0.0221: real time      0.0221
    MIXING:  cpu time      0.0047: real time      0.0047
    --------------------------------------------
      LOOP:  cpu time      1.2674: real time      1.2674

 eigenvalue-minimisations  :    25
 total energy-change (2. order) :-0.3167045E-04  (-0.4743220E-04)
 number of electron      16.0000001 magnetization 
 augmentation part        1.6264665 magnetization 

 Broyden mixing:
  rms(total) = 0.32321E-02    rms(broyden)= 0.32321E-02
  rms(prec ) = 0.77602E-02
  weight for this iteration     100.00

 eigenvalues of (default mixing * dielectric matrix)
  average eigenvalue GAMMA=   1.4890
  2.7188  2.5531  1.2870  1.2870  0.9985  0.9985  0.5803

 Free energy of the ion-electron system (eV)
  ---------------------------------------------------
  alpha Z        PSCENC =        40.44071196
  Ewald energy   TEWEN  =      -767.75865402
  -Hartree energ DENC   =      -228.17190338
  -exchange      EXHF   =         0.00000000
  -V(xc)+E(xc)   XCENC  =        86.39846639
  PAW double counting   =      1191.95269637    -1199.56270000
  entropy T*S    EENTRO =        -0.00000000
  eigenvalues    EBANDS =       -57.49142264
  atomic energy  EATOM  =       914.71008676
  Solvation  Ediel_sol  =         0.00000000
  ---------------------------------------------------
  free energy    TOTEN  =       -19.48271856 eV

  energy without entropy =      -19.48271856  energy(sigma->0) =      -19.48271856


--------------------------------------------------------------------------------------------------------




--------------------------------------- Iteration      1(  13)  ---------------------------------------


    POTLOK:  cpu time      0.3717: real time      0.3717
    SETDIJ:  cpu time      0.7328: real time      0.7328
    EDDIAG:  cpu time      0.0203: real time      0.0203
  RMM-DIIS:  cpu time      0.1190: real time      0.1190
    ORTHCH:  cpu time      0.0003: real time      0.0003
       DOS:  cpu time      0.0000: real time      0.0000
    CHARGE:  cpu time      0.0191: real time      0.0191
    MIXING:  cpu time      0.0045: real time      0.0045
    --------------------------------------------
      LOOP:  cpu time      1.2677: real time      1.2677

 eigenvalue-minimisations  :    24
 total energy-change (2. order) :-0.8663524E-04  (-0.1835767E-04)
 number of electron      16.0000001 magnetization 
 augmentation part        1.6259665 magnetization 

 Broyden mixing:
  rms(total) = 0.56031E-02    rms(broyden)= 0.56031E-02
  rms(prec ) = 0.14157E-01
  weight for this iteration     100.00

 eigenvalues of (default mixing * dielectric matrix)
  average eigenvalue GAMMA=   1.4777
  2.6838  2.4726  1.9602  1.2593  0.9723  0.9723  0.6173  0.8839

 Free energy of the ion-electron system (eV)
  ---------------------------------------------------
  alpha Z        PSCENC =        40.44071196
  Ewald energy   TEWEN  =      -767.75865402
  -Hartree energ DENC   =      -228.27049998
  -exchange      EXHF   =         0.00000000
  -V(xc)+E(xc)   XCENC  =        86.40753001
  PAW double counting   =      1191.89025074    -1199.50814834
  entropy T*S    EENTRO =        -0.00000000
  eigenvalues    EBANDS =       -57.39408234
  atomic energy  EATOM  =       914.71008676
  Solvation  Ediel_sol  =         0.00000000
  ---------------------------------------------------
  free energy    TOTEN  =       -19.48280520 eV

  energy without entropy =      -19.48280520  energy(sigma->0) =      -19.48280520


--------------------------------------------------------------------------------------------------------




--------------------------------------- Iteration      1(  14)  ---------------------------------------


    POTLOK:  cpu time      0.3646: real time      0.3646
    SETDIJ:  cpu time      0.7314: real time      0.7314
    EDDIAG:  cpu time      0.0202: real time      0.0202
  RMM-DIIS:  cpu time      0.1192: real time      0.1192
    ORTHCH:  cpu time      0.0003: real time      0.0003
       DOS:  cpu time      0.0000: real time      0.0000
    CHARGE:  cpu time      0.0193: real time      0.0193
    MIXING:  cpu time      0.0045: real time      0.0045
    --------------------------------------------
      LOOP:  cpu time      1.2595: real time      1.2595

 eigenvalue-minimisations  :    24
 total energy-change (2. order) : 0.5750276E-04  (-0.3746113E-05)
 number of electron      16.0000001 magnetization 
 augmentation part        1.6261688 magnetization 

 Broyden mixing:
  rms(total) = 0.34963E-02    rms(broyden)= 0.34963E-02
  rms(prec ) = 0.85415E-02
  weight for this iteration     100.00

 eigenvalues of (default mixing * dielectric matrix)
  average eigenvalue GAMMA=   1.4967
  2.6772  2.4114  2.4114  1.2934  1.2934  0.9947  0.8972  0.8972  0.5940

 Free energy of the ion-electron system (eV)
  ---------------------------------------------------
  alpha Z        PSCENC =        40.44071196
  Ewald energy   TEWEN  =      -767.75865402
  -Hartree energ DENC   =      -228.19266630
  -exchange      EXHF   =         0.00000000
  -V(xc)+E(xc)   XCENC  =        86.40158499
  PAW double counting   =      1191.75667870    -1199.37351634
  entropy T*S    EENTRO =        -0.00000000
  eigenvalues    EBANDS =       -57.46697344
  atomic energy  EATOM  =       914.71008676
  Solvation  Ediel_sol  =         0.00000000
  ---------------------------------------------------
  free energy    TOTEN  =       -19.48274769 eV

  energy without entropy =      -19.48274769  energy(sigma->0) =      -19.48274769


--------------------------------------------------------------------------------------------------------




--------------------------------------- Iteration      1(  15)  ---------------------------------------


    POTLOK:  cpu time      0.3645: real time      0.3645
    SETDIJ:  cpu time      0.7315: real time      0.7315
    EDDIAG:  cpu time      0.0201: real time      0.0201
  RMM-DIIS:  cpu time      0.1153: real time      0.1153
    ORTHCH:  cpu time      0.0003: real time      0.0003
       DOS:  cpu time      0.0000: real time      0.0000
    CHARGE:  cpu time      0.0194: real time      0.0194
    MIXING:  cpu time      0.0047: real time      0.0047
    --------------------------------------------
      LOOP:  cpu time      1.2558: real time      1.2558

 eigenvalue-minimisations  :    23
 total energy-change (2. order) : 0.2057008E-04  (-0.1972352E-05)
 number of electron      16.0000001 magnetization 
 augmentation part        1.6263845 magnetization 

 Broyden mixing:
  rms(total) = 0.21341E-02    rms(broyden)= 0.21341E-02
  rms(prec ) = 0.51091E-02
  weight for this iteration     100.00

 eigenvalues of (default mixing * dielectric matrix)
  average eigenvalue GAMMA=   1.4436
  2.5748  2.5748  2.2812  1.4247  1.4247  1.0432  0.9124  0.9124  0.6439  0.6439

 Free energy of the ion-electron system (eV)
  ---------------------------------------------------
  alpha Z        PSCENC =        40.44071196
  Ewald energy   TEWEN  =      -767.75865402
  -Hartree energ DENC   =      -228.16104931
  -exchange      EXHF   =         0.00000000
  -V(xc)+E(xc)   XCENC  =        86.40133865
  PAW double counting   =      1191.83926063    -1199.45466332
  entropy T*S    EENTRO =        -0.00000000
  eigenvalues    EBANDS =       -57.49975848
  atomic energy  EATOM  =       914.71008676
  Solvation  Ediel_sol  =         0.00000000
  ---------------------------------------------------
  free energy    TOTEN  =       -19.48272712 eV

  energy without entropy =      -19.48272712  energy(sigma->0) =      -19.48272712


--------------------------------------------------------------------------------------------------------




--------------------------------------- Iteration      1(  16)  ---------------------------------------


    POTLOK:  cpu time      0.3642: real time      0.3642
    SETDIJ:  cpu time      0.7316: real time      0.7316
    EDDIAG:  cpu time      0.0203: real time      0.0203
  RMM-DIIS:  cpu time      0.0923: real time      0.0923
    ORTHCH:  cpu time      0.0002: real time      0.0002
       DOS:  cpu time      0.0000: real time      0.0000
    CHARGE:  cpu time      0.0198: real time      0.0198
    MIXING:  cpu time      0.0047: real time      0.0047
    --------------------------------------------
      LOOP:  cpu time      1.2331: real time      1.2331

 eigenvalue-minimisations  :    16
 total energy-change (2. order) : 0.4875273E-05  (-0.2943518E-06)
 number of electron      16.0000001 magnetization 
 augmentation part        1.6264517 magnetization 

 Broyden mixing:
  rms(total) = 0.16300E-02    rms(broyden)= 0.16300E-02
  rms(prec ) = 0.38903E-02
  weight for this iteration     100.00

 eigenvalues of (default mixing * dielectric matrix)
  average eigenvalue GAMMA=   1.6068
  3.9417  2.6962  2.3390  2.3390  1.3523  0.9225  0.9225  1.0899  0.9349  0.6008
  0.5359

 Free energy of the ion-electron system (eV)
  ---------------------------------------------------
  alpha Z        PSCENC =        40.44071196
  Ewald energy   TEWEN  =      -767.75865402
  -Hartree energ DENC   =      -228.15454643
  -exchange      EXHF   =         0.00000000
  -V(xc)+E(xc)   XCENC  =        86.40234786
  PAW double counting   =      1191.91207251    -1199.52693708
  entropy T*S    EENTRO =        -0.00000000
  eigenvalues    EBANDS =       -57.50780381
  atomic energy  EATOM  =       914.71008676
  Solvation  Ediel_sol  =         0.00000000
  ---------------------------------------------------
  free energy    TOTEN  =       -19.48272225 eV

  energy without entropy =      -19.48272225  energy(sigma->0) =      -19.48272225


--------------------------------------------------------------------------------------------------------




--------------------------------------- Iteration      1(  17)  ---------------------------------------


    POTLOK:  cpu time      0.3644: real time      0.3644
    SETDIJ:  cpu time      0.7318: real time      0.7318
    EDDIAG:  cpu time      0.0201: real time      0.0201
  RMM-DIIS:  cpu time      0.1205: real time      0.1205
    ORTHCH:  cpu time      0.0002: real time      0.0002
       DOS:  cpu time      0.0000: real time      0.0000
    CHARGE:  cpu time      0.0193: real time      0.0193
    MIXING:  cpu time      0.0048: real time      0.0048
    --------------------------------------------
      LOOP:  cpu time      1.2612: real time      1.2612

 eigenvalue-minimisations  :    24
 total energy-change (2. order) : 0.9613034E-05  (-0.9468763E-06)
 number of electron      16.0000001 magnetization 
 augmentation part        1.6266012 magnetization 

 Broyden mixing:
  rms(total) = 0.50685E-03    rms(broyden)= 0.50685E-03
  rms(prec ) = 0.11506E-02
  weight for this iteration     100.00

 eigenvalues of (default mixing * dielectric matrix)
  average eigenvalue GAMMA=   1.5255
  3.5548  2.6519  2.4459  2.4459  1.3970  0.9344  0.9344  1.0263  0.9656  0.6026
  0.6736  0.6736

 Free energy of the ion-electron system (eV)
  ---------------------------------------------------
  alpha Z        PSCENC =        40.44071196
  Ewald energy   TEWEN  =      -767.75865402
  -Hartree energ DENC   =      -228.13297482
  -exchange      EXHF   =         0.00000000
  -V(xc)+E(xc)   XCENC  =        86.40235754
  PAW double counting   =      1192.04839608    -1199.66197369
  entropy T*S    EENTRO =        -0.00000000
  eigenvalues    EBANDS =       -57.53066243
  atomic energy  EATOM  =       914.71008676
  Solvation  Ediel_sol  =         0.00000000
  ---------------------------------------------------
  free energy    TOTEN  =       -19.48271263 eV

  energy without entropy =      -19.48271263  energy(sigma->0) =      -19.48271263


--------------------------------------------------------------------------------------------------------




--------------------------------------- Iteration      1(  18)  ---------------------------------------


    POTLOK:  cpu time      0.3641: real time      0.3641
    SETDIJ:  cpu time      0.7313: real time      0.7313
    EDDIAG:  cpu time      0.0202: real time      0.0202
  RMM-DIIS:  cpu time      0.0787: real time      0.0787
    ORTHCH:  cpu time      0.0003: real time      0.0003
       DOS:  cpu time      0.0000: real time      0.0000
    CHARGE:  cpu time      0.0194: real time      0.0194
    MIXING:  cpu time      0.0049: real time      0.0049
    --------------------------------------------
      LOOP:  cpu time      1.2188: real time      1.2188

 eigenvalue-minimisations  :    12
 total energy-change (2. order) : 0.1783539E-05  (-0.7813567E-07)
 number of electron      16.0000001 magnetization 
 augmentation part        1.6266356 magnetization 

 Broyden mixing:
  rms(total) = 0.21958E-03    rms(broyden)= 0.21958E-03
  rms(prec ) = 0.50007E-03
  weight for this iteration     100.00

 eigenvalues of (default mixing * dielectric matrix)
  average eigenvalue GAMMA=   1.4812
  3.8776  2.6529  2.4537  2.4537  1.3514  1.0602  0.9289  0.9289  0.9178  0.7787
  0.7787  0.6026  0.4709

 Free energy of the ion-electron system (eV)
  ---------------------------------------------------
  alpha Z        PSCENC =        40.44071196
  Ewald energy   TEWEN  =      -767.75865402
  -Hartree energ DENC   =      -228.12983724
  -exchange      EXHF   =         0.00000000
  -V(xc)+E(xc)   XCENC  =        86.40325559
  PAW double counting   =      1192.11265143    -1199.72591697
  entropy T*S    EENTRO =        -0.00000000
  eigenvalues    EBANDS =       -57.53500837
  atomic energy  EATOM  =       914.71008676
  Solvation  Ediel_sol  =         0.00000000
  ---------------------------------------------------
  free energy    TOTEN  =       -19.48271085 eV

  energy without entropy =      -19.48271085  energy(sigma->0) =      -19.48271085


--------------------------------------------------------------------------------------------------------




--------------------------------------- Iteration      1(  19)  ---------------------------------------


    POTLOK:  cpu time      0.3642: real time      0.3642
    SETDIJ:  cpu time      0.7320: real time      0.7320
    EDDIAG:  cpu time      0.0202: real time      0.0202
  RMM-DIIS:  cpu time      0.0785: real time      0.0785
    ORTHCH:  cpu time      0.0002: real time      0.0002
       DOS:  cpu time      0.0000: real time      0.0000
    CHARGE:  cpu time      0.0197: real time      0.0197
    MIXING:  cpu time      0.0049: real time      0.0049
    --------------------------------------------
      LOOP:  cpu time      1.2197: real time      1.2197

 eigenvalue-minimisations  :    12
 total energy-change (2. order) : 0.1070531E-05  (-0.3724183E-07)
 number of electron      16.0000001 magnetization 
 augmentation part        1.6266616 magnetization 

 Broyden mixing:
  rms(total) = 0.40579E-04    rms(broyden)= 0.40578E-04
  rms(prec ) = 0.95191E-04
  weight for this iteration     100.00

 eigenvalues of (default mixing * dielectric matrix)
  average eigenvalue GAMMA=   1.6145
  4.1298  2.7389  2.7389  2.6438  2.1187  1.3172  1.1633  0.9159  0.9159  0.9699
  0.9699  0.6012  0.6899  0.6899

 Free energy of the ion-electron system (eV)
  ---------------------------------------------------
  alpha Z        PSCENC =        40.44071196
  Ewald energy   TEWEN  =      -767.75865402
  -Hartree energ DENC   =      -228.12648998
  -exchange      EXHF   =         0.00000000
  -V(xc)+E(xc)   XCENC  =        86.40341961
  PAW double counting   =      1192.13832314    -1199.75136391
  entropy T*S    EENTRO =        -0.00000000
  eigenvalues    EBANDS =       -57.53874333
  atomic energy  EATOM  =       914.71008676
  Solvation  Ediel_sol  =         0.00000000
  ---------------------------------------------------
  free energy    TOTEN  =       -19.48270978 eV

  energy without entropy =      -19.48270978  energy(sigma->0) =      -19.48270978


--------------------------------------------------------------------------------------------------------




--------------------------------------- Iteration      1(  20)  ---------------------------------------


    POTLOK:  cpu time      0.3644: real time      0.3644
    SETDIJ:  cpu time      0.7324: real time      0.7324
    EDDIAG:  cpu time      0.0207: real time      0.0207
  RMM-DIIS:  cpu time      0.0663: real time      0.0663
    ORTHCH:  cpu time      0.0003: real time      0.0003
       DOS:  cpu time      0.0000: real time      0.0000
    --------------------------------------------
      LOOP:  cpu time      1.1842: real time      1.1841

 eigenvalue-minimisations  :     8
 total energy-change (2. order) : 0.4722119E-07  (-0.2170244E-08)
 number of electron      16.0000001 magnetization 
 augmentation part        1.6266616 magnetization 

 Free energy of the ion-electron system (eV)
  ---------------------------------------------------
  alpha Z        PSCENC =        40.44071196
  Ewald energy   TEWEN  =      -767.75865402
  -Hartree energ DENC   =      -228.12780670
  -exchange      EXHF   =         0.00000000
  -V(xc)+E(xc)   XCENC  =        86.40374061
  PAW double counting   =      1192.15425048    -1199.76726785
  entropy T*S    EENTRO =        -0.00000000
  eigenvalues    EBANDS =       -57.53777097
  atomic energy  EATOM  =       914.71008676
  Solvation  Ediel_sol  =         0.00000000
  ---------------------------------------------------
  free energy    TOTEN  =       -19.48270973 eV

  energy without entropy =      -19.48270973  energy(sigma->0) =      -19.48270973


--------------------------------------------------------------------------------------------------------




 average (electrostatic) potential at core
  the test charge radii are     0.5201  0.7215
  (the norm of the test charge is              1.0000)
       1 -36.4637       2 -36.4637       3 -36.4637       4 -36.4637       5 -72.6534
       6 -72.6534
 
 
 
 E-fermi :   4.5600     XC(G=0): -12.4263     alpha+bet :-11.7316

 val. band max:        4.2502401177   @ k =   0.0000   0.0000   0.0000
 cond. band min:      11.8672511185   @ k =   0.0000   0.0000   0.0000
 fundamental gap:      7.6170110009
 Fermi energy:         4.5600196434

 k-point     1 :       0.0000    0.0000    0.0000
  band No.  band energies     occupation 
      1     -19.5092      2.00000
      2     -12.7311      2.00000
      3      -3.0931      2.00000
      4      -3.0931      2.00000
      5      -3.0931      2.00000
      6       4.2502      2.00000
      7       4.2502      2.00000
      8       4.2502      2.00000
      9      11.8673      0.00000
     10      14.6219      0.00000
     11      14.6219      0.00000
     12      19.9189      0.00000


--------------------------------------------------------------------------------------------------------


 soft charge-density along one line, spin component           1
         0         1         2         3         4         5         6         7         8         9
 total charge-density along one line
 
 pseudopotential strength for first ion, spin component:           1
 -2.230  -3.817  -0.000   0.000   0.000
 -3.817  -6.445  -0.001   0.000   0.000
 -0.000  -0.001  -0.387   0.004  -0.004
  0.000   0.000   0.004  -0.386   0.004
  0.000   0.000  -0.004   0.004  -0.387
 total augmentation occupancy for first ion, spin component:           1
  3.362  -0.790   0.000  -0.000  -0.000
 -0.790   0.212  -0.000  -0.000   0.000
  0.000  -0.000   0.067  -0.056   0.056
 -0.000  -0.000  -0.056   0.067  -0.056
 -0.000   0.000   0.056  -0.056   0.067


------------------------ aborting loop because EDIFF is reached ----------------------------------------


    CHARGE:  cpu time      0.0102: real time      0.0102
    FORLOC:  cpu time      0.0103: real time      0.0103
    FORNL :  cpu time      0.0209: real time      0.0209
    STRESS:  cpu time      0.4149: real time      0.4149
    FORCOR:  cpu time      0.3703: real time      0.3703
    FORHAR:  cpu time      0.0258: real time      0.0258
    MIXING:  cpu time      0.0062: real time      0.0062
    OFIELD:  cpu time      0.0000: real time      0.0000

  FORCE on cell =-STRESS in cart. coord.  units (eV):
  Direction    XX          YY          ZZ          XY          YZ          ZX
  --------------------------------------------------------------------------------------
  Alpha Z    40.44071    40.44071    40.44071
  Ewald    -255.91969  -255.91969  -255.91969     0.00000    -0.00000    -0.00000
  Hartree    76.04262    76.04266    76.04273     0.00000    -0.00001    -0.00000
  E(xc)     -78.95302   -78.95306   -78.95311    -0.00000     0.00000     0.00000
  Local     -42.93345   -42.93347   -42.93350    -0.00000     0.00001     0.00000
  n-local   -63.47400   -63.47376   -63.47325    -0.00000    -0.00000    -0.00000
  augment    16.72525    16.72524    16.72523     0.00000     0.00000    -0.00000
  Kinetic   323.93421   323.93369   323.93273     0.00000     0.00001     0.00000
  Fock        0.00000     0.00000     0.00000     0.00000     0.00000     0.00000
  -------------------------------------------------------------------------------------
  Total      15.86264    15.86232    15.86185    -0.00000     0.00002     0.00000
  in kB    1145.80310  1145.77991  1145.74593    -0.00007     0.00130     0.00014
  external pressure =     1145.78 kB  Pullay stress =        0.00 kB


 VOLUME and BASIS-vectors are now :
 -----------------------------------------------------------------------------
  energy-cutoff  :     1500.00
  volume of cell :       22.18
      direct lattice vectors                 reciprocal lattice vectors
     2.809692000  0.000000000  0.000000000     0.355910897  0.000000000  0.000000000
     0.000000000  2.809692000  0.000000000     0.000000000  0.355910897  0.000000000
     0.000000000  0.000000000  2.809692000     0.000000000  0.000000000  0.355910897

  length of vectors
     2.809692000  2.809692000  2.809692000     0.355910897  0.355910897  0.355910897


 FORCES acting on ions
    electron-ion (+dipol)            ewald-force                    non-local-force                 convergence-correction
 -----------------------------------------------------------------------------------------------
   -.207E-03 0.702E-03 -.992E-04   0.355E-14 0.711E-14 -.355E-14   0.590E-03 -.516E-03 -.223E-03   0.199E-06 0.164E-06 -.319E-06
   -.206E-03 0.702E-03 0.997E-04   0.355E-14 0.355E-14 0.711E-14   0.590E-03 -.515E-03 0.223E-03   -.250E-06 -.329E-06 -.124E-06
   -.207E-03 -.702E-03 -.993E-04   0.355E-14 0.000E+00 0.000E+00   0.590E-03 0.516E-03 -.223E-03   -.290E-06 0.365E-06 0.153E-06
   -.206E-03 -.703E-03 0.997E-04   0.355E-14 0.000E+00 0.355E-14   0.590E-03 0.515E-03 0.224E-03   0.191E-06 -.143E-06 0.322E-06
   0.282E-03 0.226E-04 -.191E-04   -.114E-13 -.750E-14 -.779E-14   -.112E-02 0.206E-04 -.191E-04   0.533E-04 -.454E-04 0.469E-04
   0.394E-03 -.217E-04 0.160E-04   -.367E-14 -.388E-14 -.199E-14   -.108E-02 -.202E-04 0.168E-04   -.495E-04 0.455E-04 -.479E-04
 -----------------------------------------------------------------------------------------------
   -.148E-03 0.838E-06 -.221E-05   -.835E-15 -.720E-15 -.267E-14   0.160E-03 0.275E-06 -.155E-05   0.359E-05 0.109E-06 -.974E-06
 
 
 POSITION                                       TOTAL-FORCE (eV/Angst)
 -----------------------------------------------------------------------------------
      2.10727      2.10727      0.70242         0.000381      0.000187     -0.000322
      0.70242      0.70242      0.70242         0.000381      0.000186      0.000324
      0.70242      2.10727      2.10727         0.000381     -0.000186     -0.000321
      2.10727      0.70242      2.10727         0.000382     -0.000188      0.000324
      0.00000      0.00000      0.00000        -0.000788     -0.000002      0.000010
      1.40485      1.40485      1.40485        -0.000737      0.000003     -0.000014
 -----------------------------------------------------------------------------------
    total drift:                                0.000015      0.000001     -0.000005


--------------------------------------------------------------------------------------------------------



  FREE ENERGIE OF THE ION-ELECTRON SYSTEM (eV)
  ---------------------------------------------------
  free  energy   TOTEN  =       -19.48270973 eV

  energy  without entropy=      -19.48270973  energy(sigma->0) =      -19.48270973
 


--------------------------------------------------------------------------------------------------------


    POTLOK:  cpu time      1.0970: real time      1.0970


--------------------------------------------------------------------------------------------------------


     LOOP+:  cpu time     23.6917: real time     23.6937
    4ORBIT:  cpu time      0.0022: real time      0.0022

 total amount of memory used by VASP MPI-rank0    72073. kBytes
=======================================================================

   base      :      30000. kBytes
   nonl-proj :        659. kBytes
   fftplans  :      13060. kBytes
   grid      :      27764. kBytes
   one-center:         18. kBytes
   wavefun   :        572. kBytes
 
  
  
 General timing and accounting informations for this job:
 ========================================================
  
                  Total CPU time used (sec):       24.929
                            User time (sec):       23.807
                          System time (sec):        1.121
                         Elapsed time (sec):       25.215
  
                   Maximum memory used (kb):      215780.
                   Average memory used (kb):          N/A
  
                          Minor page faults:        91726
                          Major page faults:          401
                 Voluntary context switches:         1252
