<?xml version="1.0" encoding="ISO-8859-1"?>
<modeling>
 <generator>
  <i name="program" type="string">vasp </i>
  <i name="version" type="string">6.4.3  </i>
  <i name="subversion" type="string">19Mar24 (build Jun 21 2025 18:38:16) complex                          parallel </i>
  <i name="platform" type="string">LinuxIFC </i>
  <i name="date" type="string">2025 06 27 </i>
  <i name="time" type="string">11:17:48 </i>
 </generator>
 <incar>
  <i type="string" name="PREC">A</i>
  <i type="string" name="ALGO">fast</i>
  <i type="int" name="NELMIN">     4</i>
  <i type="int" name="IBRION">    -1</i>
  <i name="EDIFF">      0.00000100</i>
  <i type="int" name="NSW">     0</i>
  <i type="int" name="ISIF">     2</i>
  <i type="int" name="ISYM">     0</i>
  <i name="ENCUT">   1500.00000000</i>
  <i type="logical" name="LREAL"> F  </i>
  <i type="int" name="ISMEAR">     0</i>
  <i name="SIGMA">      0.05000000</i>
  <i name="PSTRESS">      0.00000000</i>
  <i type="logical" name="LWAVE"> F  </i>
  <i type="logical" name="LCHARG"> F  </i>
  <i type="logical" name="LASPH"> T  </i>
  <i type="string" name="METAGGA">SCAN</i>
 </incar>
 <primitive_cell>
  <structure name="primitive_cell" >
   <crystal>
    <varray name="basis" >
     <v>       2.80969200       0.00000000       0.00000000 </v>
     <v>       0.00000000       2.80969200       0.00000000 </v>
     <v>       0.00000000       0.00000000       2.80969200 </v>
    </varray>
    <i name="volume">     22.18074580 </i>
    <varray name="rec_basis" >
     <v>       0.35591090       0.00000000       0.00000000 </v>
     <v>       0.00000000       0.35591090       0.00000000 </v>
     <v>       0.00000000       0.00000000       0.35591090 </v>
    </varray>
   </crystal>
   <varray name="positions" >
    <v>       0.75000000       0.75000000       0.25000000 </v>
    <v>       0.25000000       0.25000000       0.25000000 </v>
    <v>       0.25000000       0.75000000       0.75000000 </v>
    <v>       0.75000000       0.25000000       0.75000000 </v>
    <v>       0.00000000       0.00000000       0.00000000 </v>
    <v>       0.50000000       0.50000000       0.50000000 </v>
   </varray>
  </structure>
  <varray name="primitive_index" >
   <v type="int" >        1 </v>
   <v type="int" >        2 </v>
   <v type="int" >        3 </v>
   <v type="int" >        4 </v>
   <v type="int" >        5 </v>
   <v type="int" >        6 </v>
  </varray>
 </primitive_cell>
 <kpoints>
  <generation param="Gamma">
   <v type="int" name="divisions">       1        1        1 </v>
   <v name="usershift">      0.00000000       0.00000000       0.00000000 </v>
   <v name="genvec1">      1.00000000       0.00000000       0.00000000 </v>
   <v name="genvec2">      0.00000000       1.00000000       0.00000000 </v>
   <v name="genvec3">      0.00000000       0.00000000       1.00000000 </v>
   <v name="shift">      0.00000000       0.00000000       0.00000000 </v>
  </generation>
  <varray name="kpointlist" >
   <v>       0.00000000       0.00000000       0.00000000 </v>
  </varray>
  <varray name="weights" >
   <v>       1.00000000 </v>
  </varray>
 </kpoints>
 <parameters>
  <separator name="general" >
   <i type="string" name="SYSTEM">unknown system</i>
   <i type="logical" name="LCOMPAT"> F  </i>
  </separator>
  <separator name="electronic" >
   <i type="string" name="PREC">a</i>
   <i name="ENMAX">   1500.00000000</i>
   <i name="ENAUG">    605.39200000</i>
   <i name="EDIFF">      0.00000100</i>
   <i type="int" name="IALGO">    68</i>
   <i type="int" name="IWAVPR">    10</i>
   <i type="int" name="NBANDS">    12</i>
   <i type="int" name="NBANDSLOW">    -1</i>
   <i type="int" name="NBANDSHIGH">    -1</i>
   <i name="NELECT">     16.00000000</i>
   <i type="int" name="TURBO">     0</i>
   <i type="int" name="IRESTART">     0</i>
   <i type="int" name="NREBOOT">     0</i>
   <i type="int" name="NMIN">     0</i>
   <i name="EREF">      0.00000000</i>
   <separator name="electronic smearing" >
    <i type="int" name="ISMEAR">     0</i>
    <i name="SIGMA">      0.05000000</i>
    <i name="KSPACING">      0.50000000</i>
    <i type="logical" name="KGAMMA"> T  </i>
    <i type="logical" name="KBLOWUP"> T  </i>
   </separator>
   <separator name="electronic projectors" >
    <i type="logical" name="LREAL"> F  </i>
    <v name="ROPT">      0.00000000      0.00000000</v>
    <i type="int" name="LMAXPAW">  -100</i>
    <i type="int" name="LMAXMIX">     2</i>
    <i type="logical" name="NLSPLINE"> F  </i>
   </separator>
   <separator name="electronic startup" >
    <i type="int" name="ISTART">     0</i>
    <i type="int" name="ICHARG">     2</i>
    <i type="int" name="INIWAV">     1</i>
   </separator>
   <separator name="electronic spin" >
    <i type="int" name="ISPIN">     1</i>
    <i type="logical" name="LNONCOLLINEAR"> F  </i>
    <v name="MAGMOM">      1.00000000      1.00000000      1.00000000      1.00000000      1.00000000      1.00000000</v>
    <i name="NUPDOWN">     -1.00000000</i>
    <i type="logical" name="LSORBIT"> F  </i>
    <v name="SAXIS">      0.00000000      0.00000000      1.00000000</v>
    <i type="logical" name="LSPIRAL"> F  </i>
    <v name="QSPIRAL">      0.00000000      0.00000000      0.00000000</v>
    <i type="logical" name="LZEROZ"> F  </i>
   </separator>
   <separator name="electronic exchange-correlation" >
    <i type="logical" name="LASPH"> T  </i>
   </separator>
   <separator name="electronic convergence" >
    <i type="int" name="NELM">    60</i>
    <i type="int" name="NELMDL">     0</i>
    <i type="int" name="NELMIN">     4</i>
    <i name="ENINI">   1500.00000000</i>
    <separator name="electronic convergence detail" >
     <i type="logical" name="LDIAG"> T  </i>
     <i type="logical" name="LSUBROT"> F  </i>
     <i name="WEIMIN">      0.00000000</i>
     <i name="EBREAK">      0.00000002</i>
     <i name="DEPER">      0.30000000</i>
     <i type="int" name="NRMM">     4</i>
     <i name="TIME">      0.40000000</i>
    </separator>
   </separator>
   <separator name="electronic mixer" >
    <i name="AMIX">      0.40000000</i>
    <i name="BMIX">      1.00000000</i>
    <i name="AMIN">      0.10000000</i>
    <i name="AMIX_MAG">      1.60000000</i>
    <i name="BMIX_MAG">      1.00000000</i>
    <separator name="electronic mixer details" >
     <i type="int" name="IMIX">     4</i>
     <i type="logical" name="MIXFIRST"> F  </i>
     <i type="int" name="MAXMIX">   -45</i>
     <i name="WC">    100.00000000</i>
     <i type="int" name="INIMIX">     1</i>
     <i type="int" name="MIXPRE">     1</i>
     <i type="int" name="MREMOVE">     5</i>
    </separator>
   </separator>
   <separator name="electronic dipolcorrection" >
    <i type="logical" name="LDIPOL"> F  </i>
    <i type="logical" name="LMONO"> F  </i>
    <i type="int" name="IDIPOL">     0</i>
    <i name="EPSILON">      1.00000000</i>
    <v name="DIPOL">   -100.00000000   -100.00000000   -100.00000000</v>
    <i name="EFIELD">      0.00000000</i>
    <i type="logical" name="LVACPOTAV"> F  </i>
   </separator>
  </separator>
  <separator name="grids" >
   <i type="int" name="NGX">    36</i>
   <i type="int" name="NGY">    36</i>
   <i type="int" name="NGZ">    36</i>
   <i type="int" name="NGXF">    72</i>
   <i type="int" name="NGYF">    72</i>
   <i type="int" name="NGZF">    72</i>
   <i type="logical" name="ADDGRID"> F  </i>
  </separator>
  <separator name="ionic" >
   <i type="int" name="NSW">     0</i>
   <i type="int" name="IBRION">    -1</i>
   <i type="int" name="MDALGO">     0</i>
   <i type="int" name="ISIF">     2</i>
   <i name="PSTRESS">      0.00000000</i>
   <i name="EDIFFG">      0.00001000</i>
   <i type="int" name="NFREE">     0</i>
   <i name="POTIM">      0.50000000</i>
   <i name="SMASS">     -3.00000000</i>
   <i name="SCALEE">      1.00000000</i>
  </separator>
  <separator name="ionic md" >
   <i name="TEBEG">      0.00010000</i>
   <i name="TEEND">      0.00010000</i>
   <i type="int" name="NBLOCK">     1</i>
   <i type="int" name="KBLOCK">     1</i>
   <i type="int" name="NPACO">   256</i>
   <i name="APACO">     10.00000000</i>
  </separator>
  <separator name="symmetry" >
   <i type="int" name="ISYM">     0</i>
   <i name="SYMPREC">      0.00001000</i>
  </separator>
  <separator name="dos" >
   <i type="int" name="LORBIT">     0</i>
   <v name="RWIGS">     -1.00000000     -1.00000000</v>
   <i type="int" name="NEDOS">   301</i>
   <i name="EMIN">     10.00000000</i>
   <i name="EMAX">    -10.00000000</i>
   <i name="EFERMI">      0.00000000</i>
  </separator>
  <separator name="writing" >
   <i type="int" name="NWRITE">     2</i>
   <i type="logical" name="LWAVE"> F  </i>
   <i type="logical" name="LDOWNSAMPLE"> F  </i>
   <i type="logical" name="LCHARG"> F  </i>
   <i type="logical" name="LPARD"> F  </i>
   <i type="logical" name="LVTOT"> F  </i>
   <i type="logical" name="LVHAR"> F  </i>
   <i type="logical" name="LELF"> F  </i>
   <i type="logical" name="LOPTICS"> F  </i>
   <v name="STM">      0.00000000      0.00000000      0.00000000      0.00000000      0.00000000      0.00000000      0.00000000</v>
  </separator>
  <separator name="performance" >
   <i type="int" name="NPAR">     1</i>
   <i type="int" name="NSIM">     4</i>
   <i type="int" name="NBLK">    -1</i>
   <i type="logical" name="LPLANE"> T  </i>
   <i type="logical" name="LSCALAPACK"> T  </i>
   <i type="logical" name="LSCAAWARE"> F  </i>
   <i type="logical" name="LSCALU"> F  </i>
   <i type="logical" name="LASYNC"> F  </i>
   <i type="logical" name="LORBITALREAL"> F  </i>
  </separator>
  <separator name="miscellaneous" >
   <i type="int" name="IDIOT">     3</i>
   <i type="int" name="PHON_NSTRUCT">    -1</i>
   <i type="logical" name="LMUSIC"> F  </i>
   <v name="POMASS">      1.00000000     16.00000000</v>
   <v name="DARWINR">      0.00000000      0.00000000</v>
   <v name="DARWINV">      1.00000000      1.00000000</v>
   <i type="logical" name="LCORR"> T  </i>
  </separator>
  <i type="logical" name="GGA_COMPAT"> T  </i>
  <i type="logical" name="LBERRY"> F  </i>
  <i type="int" name="ICORELEVEL">     0</i>
  <i type="logical" name="LDAU"> F  </i>
  <i type="int" name="I_CONSTRAINED_M">     0</i>
  <separator name="electronic exchange-correlation" >
   <i type="string" name="METAGGA">SCAN</i>
   <i type="string" name="XC_C">1</i>
   <i type="int" name="VOSKOWN">     0</i>
   <i type="logical" name="LHFCALC"> F  </i>
   <i type="string" name="PRECFOCK"></i>
   <i type="logical" name="LSYMGRAD"> F  </i>
   <i type="logical" name="LHFONE"> F  </i>
   <i type="logical" name="LRHFCALC"> F  </i>
   <i type="logical" name="LTHOMAS"> F  </i>
   <i type="logical" name="LMODELHF"> F  </i>
   <i type="logical" name="LFOCKACE"> F  </i>
   <i name="ENCUT4O">     -1.00000000</i>
   <i type="int" name="EXXOEP">     0</i>
   <i type="int" name="FOURORBIT">     0</i>
   <i name="AEXX">      0.00000000</i>
   <i name="HFALPHA">      0.00000000</i>
   <i name="MCALPHA">      0.00000000</i>
   <i name="ALDAX">      1.00000000</i>
   <i name="AGGAX">      1.00000000</i>
   <i name="AMGGAX">      1.00000000</i>
   <i name="ALDAC">      1.00000000</i>
   <i name="AGGAC">      1.00000000</i>
   <i name="AMGGAC">      1.00000000</i>
   <i type="int" name="NKREDX">     1</i>
   <i type="int" name="NKREDY">     1</i>
   <i type="int" name="NKREDZ">     1</i>
   <i type="logical" name="SHIFTRED"> F  </i>
   <i type="logical" name="ODDONLY"> F  </i>
   <i type="logical" name="EVENONLY"> F  </i>
   <i type="int" name="LMAXFOCK">     0</i>
   <i type="int" name="NMAXFOCKAE">     0</i>
   <i type="logical" name="LFOCKAEDFT"> F  </i>
   <i name="HFSCREEN">      0.00000000</i>
   <i name="HFSCREENC">      0.00000000</i>
   <i type="int" name="NBANDSGWLOW">     0</i>
  </separator>
  <separator name="vdW DFT" >
   <i type="logical" name="LUSE_VDW"> F  </i>
   <i type="int" name="IVDW_NL">    -1</i>
   <i type="logical" name="LSPIN_VDW"> F  </i>
   <i name="ZAB_VDW">     -0.84910000</i>
   <i name="GAMMA_VDW">      1.39626340</i>
   <i name="ALPHA_VDW">      0.00000000</i>
   <i name="PARAM1">      0.12340000</i>
   <i name="PARAM2">      1.00000000</i>
   <i name="BPARAM">      6.30000000</i>
   <i name="CPARAM">      0.00930000</i>
  </separator>
  <separator name="model GW" >
   <i type="int" name="MODEL_GW">     0</i>
   <i name="MODEL_EPS0">      2.21807458</i>
   <i name="MODEL_ALPHA">      1.00000000</i>
  </separator>
  <separator name="linear response parameters" >
   <i type="logical" name="LEPSILON"> F  </i>
   <i type="logical" name="LRPA"> F  </i>
   <i type="logical" name="LNABLA"> F  </i>
   <i type="logical" name="LVEL"> F  </i>
   <i name="CSHIFT">      0.10000000</i>
   <i name="OMEGAMAX">     -1.00000000</i>
   <i name="DEG_THRESHOLD">      0.00200000</i>
   <i name="RTIME">     -0.10000000</i>
   <i name="WPLASMAI">      0.00000000</i>
   <v name="DFIELD">      0.00000000      0.00000000      0.00000000</v>
   <v name="WPLASMA">      0.00000000      0.00000000      0.00000000      0.00000000      0.00000000      0.00000000      0.00000000      0.00000000      0.00000000</v>
  </separator>
  <separator name="orbital magnetization" >
   <i type="logical" name="NUCIND"> F  </i>
   <v name="MAGPOS">      0.00000000      0.00000000      0.00000000</v>
   <i type="logical" name="LNICSALL"> T  </i>
   <i type="logical" name="ORBITALMAG"> F  </i>
   <i type="logical" name="LMAGBLOCH"> F  </i>
   <i type="logical" name="LCHIMAG"> F  </i>
   <i type="logical" name="LGAUGE"> T  </i>
   <i type="int" name="MAGATOM">     0</i>
   <v name="MAGDIPOL">      0.00000000      0.00000000      0.00000000</v>
   <v name="AVECCONST">      0.00000000      0.00000000      0.00000000</v>
  </separator>
  <separator name="response functions" >
   <i type="logical" name="LALL_IN_ONE"> F  </i>
   <i type="int" name="IALL_IN_ONE">    -1</i>
   <i type="int" name="NBANDS_WAVE">    -1</i>
   <i type="logical" name="LFINITE_TEMPERATURE"> F  </i>
   <i type="logical" name="LADDER"> F  </i>
   <i type="logical" name="LRPAFORCE"> F  </i>
   <i type="logical" name="LFXC"> F  </i>
   <i type="logical" name="LHARTREE"> T  </i>
   <i type="int" name="IBSE">     0</i>
   <v type="int" name="KPOINT">    -1     0     0     0</v>
   <i type="logical" name="LTCTC"> F  </i>
   <i type="logical" name="LTCTE"> F  </i>
   <i type="logical" name="LTETE"> F  </i>
   <i type="logical" name="LTRIPLET"> F  </i>
   <i type="logical" name="LFXCEPS"> F  </i>
   <i type="logical" name="LFXHEG"> F  </i>
   <i type="int" name="NATURALO">     2</i>
   <i type="logical" name="LHOLEGF"> F  </i>
   <i type="logical" name="L2ORDER"> F  </i>
   <i type="logical" name="LDMP1"> F  </i>
   <i type="logical" name="LMP2LT"> F  </i>
   <i type="logical" name="LSMP2LT"> F  </i>
   <i type="logical" name="LGWLF"> F  </i>
   <i name="ENCUTGW">     -1.60000002</i>
   <i name="ENCUTGWSOFT">     -1.60000002</i>
   <i name="ENCUTLF">     -1.00000000</i>
   <i type="logical" name="ESF_SPLINES"> F  </i>
   <i name="ESF_CONV">      0.01000000</i>
   <i type="int" name="ESF_NINTER">    15</i>
   <i type="int" name="LMAXMP2">    -1</i>
   <i name="SCISSOR">      0.00000000</i>
   <i type="int" name="NOMEGA">     0</i>
   <i type="int" name="NOMEGAR">     0</i>
   <i type="int" name="NBANDSGW">    -1</i>
   <i type="int" name="NBANDSO">    -1</i>
   <i type="int" name="NBANDSV">    -1</i>
   <i type="int" name="NELMGW">     1</i>
   <i type="int" name="NELMHF">     1</i>
   <i type="int" name="DIM">     3</i>
   <i type="int" name="IESPILON">     4</i>
   <i type="int" name="ANTIRES">     0</i>
   <i name="OMEGAMAX">    -30.00000000</i>
   <i name="OMEGAMIN">    -30.00000000</i>
   <i name="OMEGATL">   -200.00000000</i>
   <i type="int" name="OMEGAGRID">     0</i>
   <i name="CSHIFT">     -0.10000000</i>
   <i type="logical" name="LSELFENERGY"> F  </i>
   <i type="logical" name="LSPECTRAL"> F  </i>
   <i type="logical" name="LSPECTRALGW"> F  </i>
   <i type="logical" name="LSINGLES"> F  </i>
   <i type="logical" name="LFERMIGW"> F  </i>
   <i type="logical" name="ODDONLYGW"> F  </i>
   <i type="logical" name="EVENONLYGW"> F  </i>
   <i type="int" name="NKREDLFX">     1</i>
   <i type="int" name="NKREDLFY">     1</i>
   <i type="int" name="NKREDLFZ">     1</i>
   <i type="int" name="MAXMEM">  2800</i>
   <i type="int" name="TELESCOPE">     0</i>
   <i type="int" name="NTAUPAR">    -1</i>
   <i type="int" name="NOMEGAPAR">    -1</i>
   <i name="DAMP_NEWTON">      0.80000001</i>
   <i name="LAMBDA">      1.00000000</i>
  </separator>
  <separator name="External order field" >
   <i name="OFIELD_KAPPA">      0.00000000</i>
   <v name="OFIELD_K">      0.00000000      0.00000000      0.00000000</v>
   <i name="OFIELD_Q6_NEAR">      0.00000000</i>
   <i name="OFIELD_Q6_FAR">      0.00000000</i>
   <i name="OFIELD_A">      0.00000000</i>
  </separator>
  <separator name="optional k-points parameters" >
   <i type="int" name="KPOINTS_OPT_MODE">     1</i>
   <i type="logical" name="LKPOINTS_OPT"> F  </i>
  </separator>
 </parameters>
 <atominfo>
  <atoms>       6 </atoms>
  <types>       2 </types>
  <array name="atoms" >
   <dimension dim="1">ion</dimension>
   <field type="string">element</field>
   <field type="int">atomtype</field>
   <set>
    <rc><c>H </c><c>   1</c></rc>
    <rc><c>H </c><c>   1</c></rc>
    <rc><c>H </c><c>   1</c></rc>
    <rc><c>H </c><c>   1</c></rc>
    <rc><c>O </c><c>   2</c></rc>
    <rc><c>O </c><c>   2</c></rc>
   </set>
  </array>
  <array name="atomtypes" >
   <dimension dim="1">type</dimension>
   <field type="int">atomspertype</field>
   <field type="string">element</field>
   <field>mass</field>
   <field>valence</field>
   <field type="string">pseudopotential</field>
   <set>
    <rc><c>   4</c><c>H </c><c>      1.00000000</c><c>      1.00000000</c><c>  PAW_PBE H 15Jun2001                   </c></rc>
    <rc><c>   2</c><c>O </c><c>     16.00000000</c><c>      6.00000000</c><c>  PAW_PBE O 08Apr2002                   </c></rc>
   </set>
  </array>
 </atominfo>
 <structure name="initialpos" >
  <crystal>
   <varray name="basis" >
    <v>       2.80969200       0.00000000       0.00000000 </v>
    <v>       0.00000000       2.80969200       0.00000000 </v>
    <v>       0.00000000       0.00000000       2.80969200 </v>
   </varray>
   <i name="volume">     22.18074580 </i>
   <varray name="rec_basis" >
    <v>       0.35591090       0.00000000       0.00000000 </v>
    <v>       0.00000000       0.35591090       0.00000000 </v>
    <v>       0.00000000       0.00000000       0.35591090 </v>
   </varray>
  </crystal>
  <varray name="positions" >
   <v>       0.75000000       0.75000000       0.25000000 </v>
   <v>       0.25000000       0.25000000       0.25000000 </v>
   <v>       0.25000000       0.75000000       0.75000000 </v>
   <v>       0.75000000       0.25000000       0.75000000 </v>
   <v>       0.00000000       0.00000000       0.00000000 </v>
   <v>       0.50000000       0.50000000       0.50000000 </v>
  </varray>
 </structure>
 <calculation>
  <scstep>
   <time name="dav">    0.18    0.18</time>
   <time name="total">    1.58    1.58</time>
   <energy>
    <i name="alphaZ">     40.44071196 </i>
    <i name="ewald">   -767.75865402 </i>
    <i name="hartreedc">   -176.87332325 </i>
    <i name="XCdc">     78.14942493 </i>
    <i name="pawpsdc">    689.98132605 </i>
    <i name="pawaedc">   -696.05709516 </i>
    <i name="eentropy">     -0.00000000 </i>
    <i name="bandstr">     34.50863863 </i>
    <i name="atom">    914.71008676 </i>
    <i name="e_fr_energy">    117.10111590 </i>
    <i name="e_wo_entrp">    117.10111590 </i>
    <i name="e_0_energy">    117.10111590 </i>
   </energy>
  </scstep>
  <scstep>
   <time name="dav">    0.12    0.12</time>
   <time name="total">    0.12    0.12</time>
   <energy>
    <i name="e_fr_energy">    -24.59074026 </i>
    <i name="e_wo_entrp">    -24.59074026 </i>
    <i name="e_0_energy">    -24.59074026 </i>
   </energy>
  </scstep>
  <scstep>
   <time name="dav">    0.12    0.12</time>
   <time name="total">    0.12    0.12</time>
   <energy>
    <i name="e_fr_energy">    -28.41783151 </i>
    <i name="e_wo_entrp">    -28.41783151 </i>
    <i name="e_0_energy">    -28.41783151 </i>
   </energy>
  </scstep>
  <scstep>
   <time name="dav">    0.11    0.11</time>
   <time name="total">    0.11    0.11</time>
   <energy>
    <i name="e_fr_energy">    -28.43839548 </i>
    <i name="e_wo_entrp">    -28.43839548 </i>
    <i name="e_0_energy">    -28.43839548 </i>
   </energy>
  </scstep>
  <scstep>
   <time name="dav">    0.12    0.12</time>
   <time name="total">    0.16    0.16</time>
   <energy>
    <i name="e_fr_energy">    -28.43867549 </i>
    <i name="e_wo_entrp">    -28.43867549 </i>
    <i name="e_0_energy">    -28.43867549 </i>
   </energy>
  </scstep>
  <scstep>
   <time name="diag">    0.02    0.02</time>
   <time name="diis">    0.13    0.13</time>
   <time name="orth">    0.00    0.00</time>
   <time name="total">    1.41    1.41</time>
   <energy>
    <i name="e_fr_energy">    -19.36538945 </i>
    <i name="e_wo_entrp">    -19.36538945 </i>
    <i name="e_0_energy">    -19.36538945 </i>
   </energy>
  </scstep>
  <scstep>
   <time name="diag">    0.02    0.02</time>
   <time name="diis">    0.12    0.12</time>
   <time name="orth">    0.00    0.00</time>
   <time name="total">    1.27    1.27</time>
   <energy>
    <i name="e_fr_energy">    -19.43505397 </i>
    <i name="e_wo_entrp">    -19.43505397 </i>
    <i name="e_0_energy">    -19.43505397 </i>
   </energy>
  </scstep>
  <scstep>
   <time name="diag">    0.02    0.02</time>
   <time name="diis">    0.12    0.12</time>
   <time name="orth">    0.00    0.00</time>
   <time name="total">    1.27    1.27</time>
   <energy>
    <i name="e_fr_energy">    -19.74134868 </i>
    <i name="e_wo_entrp">    -19.74134868 </i>
    <i name="e_0_energy">    -19.74134868 </i>
   </energy>
  </scstep>
  <scstep>
   <time name="diag">    0.02    0.02</time>
   <time name="diis">    0.12    0.12</time>
   <time name="orth">    0.00    0.00</time>
   <time name="total">    1.27    1.27</time>
   <energy>
    <i name="e_fr_energy">    -19.47981344 </i>
    <i name="e_wo_entrp">    -19.47981344 </i>
    <i name="e_0_energy">    -19.47981344 </i>
   </energy>
  </scstep>
  <scstep>
   <time name="diag">    0.02    0.02</time>
   <time name="diis">    0.12    0.12</time>
   <time name="orth">    0.00    0.00</time>
   <time name="total">    1.26    1.26</time>
   <energy>
    <i name="e_fr_energy">    -19.48267413 </i>
    <i name="e_wo_entrp">    -19.48267413 </i>
    <i name="e_0_energy">    -19.48267413 </i>
   </energy>
  </scstep>
  <scstep>
   <time name="diag">    0.02    0.02</time>
   <time name="diis">    0.12    0.12</time>
   <time name="orth">    0.00    0.00</time>
   <time name="total">    1.26    1.26</time>
   <energy>
    <i name="e_fr_energy">    -19.48268689 </i>
    <i name="e_wo_entrp">    -19.48268689 </i>
    <i name="e_0_energy">    -19.48268689 </i>
   </energy>
  </scstep>
  <scstep>
   <time name="diag">    0.02    0.02</time>
   <time name="diis">    0.12    0.12</time>
   <time name="orth">    0.00    0.00</time>
   <time name="total">    1.27    1.27</time>
   <energy>
    <i name="e_fr_energy">    -19.48271856 </i>
    <i name="e_wo_entrp">    -19.48271856 </i>
    <i name="e_0_energy">    -19.48271856 </i>
   </energy>
  </scstep>
  <scstep>
   <time name="diag">    0.02    0.02</time>
   <time name="diis">    0.12    0.12</time>
   <time name="orth">    0.00    0.00</time>
   <time name="total">    1.27    1.27</time>
   <energy>
    <i name="e_fr_energy">    -19.48280520 </i>
    <i name="e_wo_entrp">    -19.48280520 </i>
    <i name="e_0_energy">    -19.48280520 </i>
   </energy>
  </scstep>
  <scstep>
   <time name="diag">    0.02    0.02</time>
   <time name="diis">    0.12    0.12</time>
   <time name="orth">    0.00    0.00</time>
   <time name="total">    1.26    1.26</time>
   <energy>
    <i name="e_fr_energy">    -19.48274769 </i>
    <i name="e_wo_entrp">    -19.48274769 </i>
    <i name="e_0_energy">    -19.48274769 </i>
   </energy>
  </scstep>
  <scstep>
   <time name="diag">    0.02    0.02</time>
   <time name="diis">    0.12    0.12</time>
   <time name="orth">    0.00    0.00</time>
   <time name="total">    1.26    1.26</time>
   <energy>
    <i name="e_fr_energy">    -19.48272712 </i>
    <i name="e_wo_entrp">    -19.48272712 </i>
    <i name="e_0_energy">    -19.48272712 </i>
   </energy>
  </scstep>
  <scstep>
   <time name="diag">    0.02    0.02</time>
   <time name="diis">    0.09    0.09</time>
   <time name="orth">    0.00    0.00</time>
   <time name="total">    1.23    1.23</time>
   <energy>
    <i name="e_fr_energy">    -19.48272225 </i>
    <i name="e_wo_entrp">    -19.48272225 </i>
    <i name="e_0_energy">    -19.48272225 </i>
   </energy>
  </scstep>
  <scstep>
   <time name="diag">    0.02    0.02</time>
   <time name="diis">    0.12    0.12</time>
   <time name="orth">    0.00    0.00</time>
   <time name="total">    1.26    1.26</time>
   <energy>
    <i name="e_fr_energy">    -19.48271263 </i>
    <i name="e_wo_entrp">    -19.48271263 </i>
    <i name="e_0_energy">    -19.48271263 </i>
   </energy>
  </scstep>
  <scstep>
   <time name="diag">    0.02    0.02</time>
   <time name="diis">    0.08    0.08</time>
   <time name="orth">    0.00    0.00</time>
   <time name="total">    1.22    1.22</time>
   <energy>
    <i name="e_fr_energy">    -19.48271085 </i>
    <i name="e_wo_entrp">    -19.48271085 </i>
    <i name="e_0_energy">    -19.48271085 </i>
   </energy>
  </scstep>
  <scstep>
   <time name="diag">    0.02    0.02</time>
   <time name="diis">    0.08    0.08</time>
   <time name="orth">    0.00    0.00</time>
   <time name="total">    1.22    1.22</time>
   <energy>
    <i name="e_fr_energy">    -19.48270978 </i>
    <i name="e_wo_entrp">    -19.48270978 </i>
    <i name="e_0_energy">    -19.48270978 </i>
   </energy>
  </scstep>
  <scstep>
   <time name="diag">    0.02    0.02</time>
   <time name="diis">    0.07    0.07</time>
   <time name="orth">    0.00    0.00</time>
   <time name="total">    1.18    1.18</time>
   <energy>
    <i name="alphaZ">     40.44071196 </i>
    <i name="ewald">   -767.75865402 </i>
    <i name="hartreedc">   -228.12780670 </i>
    <i name="XCdc">     86.40374061 </i>
    <i name="pawpsdc">   1192.15425048 </i>
    <i name="pawaedc">  -1199.76726785 </i>
    <i name="eentropy">     -0.00000000 </i>
    <i name="bandstr">    -57.53777097 </i>
    <i name="atom">    914.71008676 </i>
    <i name="e_fr_energy">    -19.48270973 </i>
    <i name="e_wo_entrp">    -19.48270973 </i>
    <i name="e_0_energy">    -19.48270973 </i>
   </energy>
  </scstep>
  <structure>
   <crystal>
    <varray name="basis" >
     <v>       2.80969200       0.00000000       0.00000000 </v>
     <v>       0.00000000       2.80969200       0.00000000 </v>
     <v>       0.00000000       0.00000000       2.80969200 </v>
    </varray>
    <i name="volume">     22.18074580 </i>
    <varray name="rec_basis" >
     <v>       0.35591090       0.00000000       0.00000000 </v>
     <v>       0.00000000       0.35591090       0.00000000 </v>
     <v>       0.00000000       0.00000000       0.35591090 </v>
    </varray>
   </crystal>
   <varray name="positions" >
    <v>       0.75000000       0.75000000       0.25000000 </v>
    <v>       0.25000000       0.25000000       0.25000000 </v>
    <v>       0.25000000       0.75000000       0.75000000 </v>
    <v>       0.75000000       0.25000000       0.75000000 </v>
    <v>       0.00000000       0.00000000       0.00000000 </v>
    <v>       0.50000000       0.50000000       0.50000000 </v>
   </varray>
  </structure>
  <varray name="forces" >
   <v>       0.00038113       0.00018655      -0.00032187 </v>
   <v>       0.00038131       0.00018649       0.00032377 </v>
   <v>       0.00038074      -0.00018638      -0.00032140 </v>
   <v>       0.00038186      -0.00018761       0.00032429 </v>
   <v>      -0.00078790      -0.00000246       0.00000955 </v>
   <v>      -0.00073714       0.00000341      -0.00001434 </v>
  </varray>
  <varray name="stress" >
   <v>    1145.80309741      -0.00006771       0.00013761 </v>
   <v>      -0.00006789    1145.77990600       0.00129591 </v>
   <v>       0.00013800       0.00129623    1145.74592579 </v>
  </varray>
  <energy>
   <i name="e_fr_energy">    -19.48270973 </i>
   <i name="e_wo_entrp">    -19.48270973 </i>
   <i name="e_0_energy">    -19.48270973 </i>
  </energy>
  <time name="totalsc">   23.69   23.69</time>
  <eigenvalues>
   <array>
    <dimension dim="1">band</dimension>
    <dimension dim="2">kpoint</dimension>
    <dimension dim="3">spin</dimension>
    <field>eigene</field>
    <field>occ</field>
    <set>
     <set comment="spin 1">
      <set comment="kpoint 1">
       <r>  -19.5092    1.0000 </r>
       <r>  -12.7311    1.0000 </r>
       <r>   -3.0931    1.0000 </r>
       <r>   -3.0931    1.0000 </r>
       <r>   -3.0931    1.0000 </r>
       <r>    4.2502    1.0000 </r>
       <r>    4.2502    1.0000 </r>
       <r>    4.2502    1.0000 </r>
       <r>   11.8673    0.0000 </r>
       <r>   14.6219    0.0000 </r>
       <r>   14.6219    0.0000 </r>
       <r>   19.9189    0.0000 </r>
      </set>
     </set>
    </set>
   </array>
  </eigenvalues>
  <separator name="orbital magnetization" >
   <v name="MAGDIPOLOUT">      0.00000000      0.00000000      0.00000000</v>
  </separator>
  <dos>
   <i name="efermi">      4.56001964 </i>
   <total>
    <array>
     <dimension dim="1">gridpoints</dimension>
     <dimension dim="2">spin</dimension>
     <field>energy</field>
     <field>total</field>
     <field>integrated</field>
     <set>
      <set comment="spin 1">
       <r>   -21.4806     0.0000     0.0000 </r>
       <r>   -21.3360     0.0000     0.0000 </r>
       <r>   -21.1914     0.0000     0.0000 </r>
       <r>   -21.0469     0.0000     0.0000 </r>
       <r>   -20.9023     0.0000     0.0000 </r>
       <r>   -20.7577     0.0000     0.0000 </r>
       <r>   -20.6132     0.0000     0.0000 </r>
       <r>   -20.4686     0.0000     0.0000 </r>
       <r>   -20.3240     0.0000     0.0000 </r>
       <r>   -20.1795     0.0000     0.0000 </r>
       <r>   -20.0349     0.0000     0.0000 </r>
       <r>   -19.8903     0.0000     0.0000 </r>
       <r>   -19.7458     0.0000     0.0000 </r>
       <r>   -19.6012     0.0641     0.0093 </r>
       <r>   -19.4566    12.8222     1.8630 </r>
       <r>   -19.3120     0.9479     2.0000 </r>
       <r>   -19.1675     0.0000     2.0000 </r>
       <r>   -19.0229     0.0000     2.0000 </r>
       <r>   -18.8783     0.0000     2.0000 </r>
       <r>   -18.7338     0.0000     2.0000 </r>
       <r>   -18.5892     0.0000     2.0000 </r>
       <r>   -18.4446     0.0000     2.0000 </r>
       <r>   -18.3001     0.0000     2.0000 </r>
       <r>   -18.1555     0.0000     2.0000 </r>
       <r>   -18.0109     0.0000     2.0000 </r>
       <r>   -17.8663     0.0000     2.0000 </r>
       <r>   -17.7218     0.0000     2.0000 </r>
       <r>   -17.5772     0.0000     2.0000 </r>
       <r>   -17.4326     0.0000     2.0000 </r>
       <r>   -17.2881     0.0000     2.0000 </r>
       <r>   -17.1435     0.0000     2.0000 </r>
       <r>   -16.9989     0.0000     2.0000 </r>
       <r>   -16.8544     0.0000     2.0000 </r>
       <r>   -16.7098     0.0000     2.0000 </r>
       <r>   -16.5652     0.0000     2.0000 </r>
       <r>   -16.4207     0.0000     2.0000 </r>
       <r>   -16.2761     0.0000     2.0000 </r>
       <r>   -16.1315     0.0000     2.0000 </r>
       <r>   -15.9869     0.0000     2.0000 </r>
       <r>   -15.8424     0.0000     2.0000 </r>
       <r>   -15.6978     0.0000     2.0000 </r>
       <r>   -15.5532     0.0000     2.0000 </r>
       <r>   -15.4087     0.0000     2.0000 </r>
       <r>   -15.2641     0.0000     2.0000 </r>
       <r>   -15.1195     0.0000     2.0000 </r>
       <r>   -14.9750     0.0000     2.0000 </r>
       <r>   -14.8304     0.0000     2.0000 </r>
       <r>   -14.6858     0.0000     2.0000 </r>
       <r>   -14.5412     0.0000     2.0000 </r>
       <r>   -14.3967     0.0000     2.0000 </r>
       <r>   -14.2521     0.0000     2.0000 </r>
       <r>   -14.1075     0.0000     2.0000 </r>
       <r>   -13.9630     0.0000     2.0000 </r>
       <r>   -13.8184     0.0000     2.0000 </r>
       <r>   -13.6738     0.0000     2.0000 </r>
       <r>   -13.5293     0.0000     2.0000 </r>
       <r>   -13.3847     0.0000     2.0000 </r>
       <r>   -13.2401     0.0000     2.0000 </r>
       <r>   -13.0955     0.0000     2.0000 </r>
       <r>   -12.9510     0.0000     2.0000 </r>
       <r>   -12.8064     0.2287     2.0331 </r>
       <r>   -12.6618    13.2578     3.9497 </r>
       <r>   -12.5173     0.3476     4.0000 </r>
       <r>   -12.3727     0.0000     4.0000 </r>
       <r>   -12.2281     0.0000     4.0000 </r>
       <r>   -12.0836     0.0000     4.0000 </r>
       <r>   -11.9390     0.0000     4.0000 </r>
       <r>   -11.7944     0.0000     4.0000 </r>
       <r>   -11.6499     0.0000     4.0000 </r>
       <r>   -11.5053     0.0000     4.0000 </r>
       <r>   -11.3607     0.0000     4.0000 </r>
       <r>   -11.2161     0.0000     4.0000 </r>
       <r>   -11.0716     0.0000     4.0000 </r>
       <r>   -10.9270     0.0000     4.0000 </r>
       <r>   -10.7824     0.0000     4.0000 </r>
       <r>   -10.6379     0.0000     4.0000 </r>
       <r>   -10.4933     0.0000     4.0000 </r>
       <r>   -10.3487     0.0000     4.0000 </r>
       <r>   -10.2042     0.0000     4.0000 </r>
       <r>   -10.0596     0.0000     4.0000 </r>
       <r>    -9.9150     0.0000     4.0000 </r>
       <r>    -9.7704     0.0000     4.0000 </r>
       <r>    -9.6259     0.0000     4.0000 </r>
       <r>    -9.4813     0.0000     4.0000 </r>
       <r>    -9.3367     0.0000     4.0000 </r>
       <r>    -9.1922     0.0000     4.0000 </r>
       <r>    -9.0476     0.0000     4.0000 </r>
       <r>    -8.9030     0.0000     4.0000 </r>
       <r>    -8.7585     0.0000     4.0000 </r>
       <r>    -8.6139     0.0000     4.0000 </r>
       <r>    -8.4693     0.0000     4.0000 </r>
       <r>    -8.3248     0.0000     4.0000 </r>
       <r>    -8.1802     0.0000     4.0000 </r>
       <r>    -8.0356     0.0000     4.0000 </r>
       <r>    -7.8910     0.0000     4.0000 </r>
       <r>    -7.7465     0.0000     4.0000 </r>
       <r>    -7.6019     0.0000     4.0000 </r>
       <r>    -7.4573     0.0000     4.0000 </r>
       <r>    -7.3128     0.0000     4.0000 </r>
       <r>    -7.1682     0.0000     4.0000 </r>
       <r>    -7.0236     0.0000     4.0000 </r>
       <r>    -6.8791     0.0000     4.0000 </r>
       <r>    -6.7345     0.0000     4.0000 </r>
       <r>    -6.5899     0.0000     4.0000 </r>
       <r>    -6.4453     0.0000     4.0000 </r>
       <r>    -6.3008     0.0000     4.0000 </r>
       <r>    -6.1562     0.0000     4.0000 </r>
       <r>    -6.0116     0.0000     4.0000 </r>
       <r>    -5.8671     0.0000     4.0000 </r>
       <r>    -5.7225     0.0000     4.0000 </r>
       <r>    -5.5779     0.0000     4.0000 </r>
       <r>    -5.4334     0.0000     4.0000 </r>
       <r>    -5.2888     0.0000     4.0000 </r>
       <r>    -5.1442     0.0000     4.0000 </r>
       <r>    -4.9996     0.0000     4.0000 </r>
       <r>    -4.8551     0.0000     4.0000 </r>
       <r>    -4.7105     0.0000     4.0000 </r>
       <r>    -4.5659     0.0000     4.0000 </r>
       <r>    -4.4214     0.0000     4.0000 </r>
       <r>    -4.2768     0.0000     4.0000 </r>
       <r>    -4.1322     0.0000     4.0000 </r>
       <r>    -3.9877     0.0000     4.0000 </r>
       <r>    -3.8431     0.0000     4.0000 </r>
       <r>    -3.6985     0.0000     4.0000 </r>
       <r>    -3.5540     0.0000     4.0000 </r>
       <r>    -3.4094     0.0000     4.0000 </r>
       <r>    -3.2648     0.0000     4.0000 </r>
       <r>    -3.1202     9.1834     5.3277 </r>
       <r>    -2.9757    32.3004     9.9973 </r>
       <r>    -2.8311     0.0186    10.0000 </r>
       <r>    -2.6865     0.0000    10.0000 </r>
       <r>    -2.5420     0.0000    10.0000 </r>
       <r>    -2.3974     0.0000    10.0000 </r>
       <r>    -2.2528     0.0000    10.0000 </r>
       <r>    -2.1083     0.0000    10.0000 </r>
       <r>    -1.9637     0.0000    10.0000 </r>
       <r>    -1.8191     0.0000    10.0000 </r>
       <r>    -1.6745     0.0000    10.0000 </r>
       <r>    -1.5300     0.0000    10.0000 </r>
       <r>    -1.3854     0.0000    10.0000 </r>
       <r>    -1.2408     0.0000    10.0000 </r>
       <r>    -1.0963     0.0000    10.0000 </r>
       <r>    -0.9517     0.0000    10.0000 </r>
       <r>    -0.8071     0.0000    10.0000 </r>
       <r>    -0.6626     0.0000    10.0000 </r>
       <r>    -0.5180     0.0000    10.0000 </r>
       <r>    -0.3734     0.0000    10.0000 </r>
       <r>    -0.2288     0.0000    10.0000 </r>
       <r>    -0.0843     0.0000    10.0000 </r>
       <r>     0.0603     0.0000    10.0000 </r>
       <r>     0.2049     0.0000    10.0000 </r>
       <r>     0.3494     0.0000    10.0000 </r>
       <r>     0.4940     0.0000    10.0000 </r>
       <r>     0.6386     0.0000    10.0000 </r>
       <r>     0.7831     0.0000    10.0000 </r>
       <r>     0.9277     0.0000    10.0000 </r>
       <r>     1.0723     0.0000    10.0000 </r>
       <r>     1.2168     0.0000    10.0000 </r>
       <r>     1.3614     0.0000    10.0000 </r>
       <r>     1.5060     0.0000    10.0000 </r>
       <r>     1.6506     0.0000    10.0000 </r>
       <r>     1.7951     0.0000    10.0000 </r>
       <r>     1.9397     0.0000    10.0000 </r>
       <r>     2.0843     0.0000    10.0000 </r>
       <r>     2.2288     0.0000    10.0000 </r>
       <r>     2.3734     0.0000    10.0000 </r>
       <r>     2.5180     0.0000    10.0000 </r>
       <r>     2.6625     0.0000    10.0000 </r>
       <r>     2.8071     0.0000    10.0000 </r>
       <r>     2.9517     0.0000    10.0000 </r>
       <r>     3.0963     0.0000    10.0000 </r>
       <r>     3.2408     0.0000    10.0000 </r>
       <r>     3.3854     0.0000    10.0000 </r>
       <r>     3.5300     0.0000    10.0000 </r>
       <r>     3.6745     0.0000    10.0000 </r>
       <r>     3.8191     0.0000    10.0000 </r>
       <r>     3.9637     0.0000    10.0000 </r>
       <r>     4.1082     0.0012    10.0002 </r>
       <r>     4.2528    21.9649    13.1756 </r>
       <r>     4.3974    19.5357    15.9999 </r>
       <r>     4.5419     0.0007    16.0000 </r>
       <r>     4.6865     0.0000    16.0000 </r>
       <r>     4.8311     0.0000    16.0000 </r>
       <r>     4.9757     0.0000    16.0000 </r>
       <r>     5.1202     0.0000    16.0000 </r>
       <r>     5.2648     0.0000    16.0000 </r>
       <r>     5.4094     0.0000    16.0000 </r>
       <r>     5.5539     0.0000    16.0000 </r>
       <r>     5.6985     0.0000    16.0000 </r>
       <r>     5.8431     0.0000    16.0000 </r>
       <r>     5.9876     0.0000    16.0000 </r>
       <r>     6.1322     0.0000    16.0000 </r>
       <r>     6.2768     0.0000    16.0000 </r>
       <r>     6.4214     0.0000    16.0000 </r>
       <r>     6.5659     0.0000    16.0000 </r>
       <r>     6.7105     0.0000    16.0000 </r>
       <r>     6.8551     0.0000    16.0000 </r>
       <r>     6.9996     0.0000    16.0000 </r>
       <r>     7.1442     0.0000    16.0000 </r>
       <r>     7.2888     0.0000    16.0000 </r>
       <r>     7.4333     0.0000    16.0000 </r>
       <r>     7.5779     0.0000    16.0000 </r>
       <r>     7.7225     0.0000    16.0000 </r>
       <r>     7.8671     0.0000    16.0000 </r>
       <r>     8.0116     0.0000    16.0000 </r>
       <r>     8.1562     0.0000    16.0000 </r>
       <r>     8.3008     0.0000    16.0000 </r>
       <r>     8.4453     0.0000    16.0000 </r>
       <r>     8.5899     0.0000    16.0000 </r>
       <r>     8.7345     0.0000    16.0000 </r>
       <r>     8.8790     0.0000    16.0000 </r>
       <r>     9.0236     0.0000    16.0000 </r>
       <r>     9.1682     0.0000    16.0000 </r>
       <r>     9.3127     0.0000    16.0000 </r>
       <r>     9.4573     0.0000    16.0000 </r>
       <r>     9.6019     0.0000    16.0000 </r>
       <r>     9.7465     0.0000    16.0000 </r>
       <r>     9.8910     0.0000    16.0000 </r>
       <r>    10.0356     0.0000    16.0000 </r>
       <r>    10.1802     0.0000    16.0000 </r>
       <r>    10.3247     0.0000    16.0000 </r>
       <r>    10.4693     0.0000    16.0000 </r>
       <r>    10.6139     0.0000    16.0000 </r>
       <r>    10.7584     0.0000    16.0000 </r>
       <r>    10.9030     0.0000    16.0000 </r>
       <r>    11.0476     0.0000    16.0000 </r>
       <r>    11.1922     0.0000    16.0000 </r>
       <r>    11.3367     0.0000    16.0000 </r>
       <r>    11.4813     0.0000    16.0000 </r>
       <r>    11.6259     0.0000    16.0000 </r>
       <r>    11.7704     0.0427    16.0062 </r>
       <r>    11.9150    12.5683    17.8232 </r>
       <r>    12.0596     1.2232    18.0000 </r>
       <r>    12.2041     0.0000    18.0000 </r>
       <r>    12.3487     0.0000    18.0000 </r>
       <r>    12.4933     0.0000    18.0000 </r>
       <r>    12.6378     0.0000    18.0000 </r>
       <r>    12.7824     0.0000    18.0000 </r>
       <r>    12.9270     0.0000    18.0000 </r>
       <r>    13.0716     0.0000    18.0000 </r>
       <r>    13.2161     0.0000    18.0000 </r>
       <r>    13.3607     0.0000    18.0000 </r>
       <r>    13.5053     0.0000    18.0000 </r>
       <r>    13.6498     0.0000    18.0000 </r>
       <r>    13.7944     0.0000    18.0000 </r>
       <r>    13.9390     0.0000    18.0000 </r>
       <r>    14.0835     0.0000    18.0000 </r>
       <r>    14.2281     0.0000    18.0000 </r>
       <r>    14.3727     0.0000    18.0000 </r>
       <r>    14.5173     0.0426    18.0062 </r>
       <r>    14.6618    24.0450    21.4823 </r>
       <r>    14.8064     3.5808    22.0000 </r>
       <r>    14.9510     0.0000    22.0000 </r>
       <r>    15.0955     0.0000    22.0000 </r>
       <r>    15.2401     0.0000    22.0000 </r>
       <r>    15.3847     0.0000    22.0000 </r>
       <r>    15.5292     0.0000    22.0000 </r>
       <r>    15.6738     0.0000    22.0000 </r>
       <r>    15.8184     0.0000    22.0000 </r>
       <r>    15.9630     0.0000    22.0000 </r>
       <r>    16.1075     0.0000    22.0000 </r>
       <r>    16.2521     0.0000    22.0000 </r>
       <r>    16.3967     0.0000    22.0000 </r>
       <r>    16.5412     0.0000    22.0000 </r>
       <r>    16.6858     0.0000    22.0000 </r>
       <r>    16.8304     0.0000    22.0000 </r>
       <r>    16.9749     0.0000    22.0000 </r>
       <r>    17.1195     0.0000    22.0000 </r>
       <r>    17.2641     0.0000    22.0000 </r>
       <r>    17.4086     0.0000    22.0000 </r>
       <r>    17.5532     0.0000    22.0000 </r>
       <r>    17.6978     0.0000    22.0000 </r>
       <r>    17.8424     0.0000    22.0000 </r>
       <r>    17.9869     0.0000    22.0000 </r>
       <r>    18.1315     0.0000    22.0000 </r>
       <r>    18.2761     0.0000    22.0000 </r>
       <r>    18.4206     0.0000    22.0000 </r>
       <r>    18.5652     0.0000    22.0000 </r>
       <r>    18.7098     0.0000    22.0000 </r>
       <r>    18.8543     0.0000    22.0000 </r>
       <r>    18.9989     0.0000    22.0000 </r>
       <r>    19.1435     0.0000    22.0000 </r>
       <r>    19.2881     0.0000    22.0000 </r>
       <r>    19.4326     0.0000    22.0000 </r>
       <r>    19.5772     0.0000    22.0000 </r>
       <r>    19.7218     0.0000    22.0000 </r>
       <r>    19.8663     0.9479    22.1370 </r>
       <r>    20.0109    12.8222    23.9907 </r>
       <r>    20.1555     0.0641    24.0000 </r>
       <r>    20.3000     0.0000    24.0000 </r>
       <r>    20.4446     0.0000    24.0000 </r>
       <r>    20.5892     0.0000    24.0000 </r>
       <r>    20.7337     0.0000    24.0000 </r>
       <r>    20.8783     0.0000    24.0000 </r>
       <r>    21.0229     0.0000    24.0000 </r>
       <r>    21.1675     0.0000    24.0000 </r>
       <r>    21.3120     0.0000    24.0000 </r>
       <r>    21.4566     0.0000    24.0000 </r>
       <r>    21.6012     0.0000    24.0000 </r>
       <r>    21.7457     0.0000    24.0000 </r>
       <r>    21.8903     0.0000    24.0000 </r>
      </set>
     </set>
    </array>
   </total>
  </dos>
 </calculation>
 <structure name="finalpos" >
  <crystal>
   <varray name="basis" >
    <v>       2.80969200       0.00000000       0.00000000 </v>
    <v>       0.00000000       2.80969200       0.00000000 </v>
    <v>       0.00000000       0.00000000       2.80969200 </v>
   </varray>
   <i name="volume">     22.18074580 </i>
   <varray name="rec_basis" >
    <v>       0.35591090       0.00000000       0.00000000 </v>
    <v>       0.00000000       0.35591090       0.00000000 </v>
    <v>       0.00000000       0.00000000       0.35591090 </v>
   </varray>
  </crystal>
  <varray name="positions" >
   <v>       0.75000000       0.75000000       0.25000000 </v>
   <v>       0.25000000       0.25000000       0.25000000 </v>
   <v>       0.25000000       0.75000000       0.75000000 </v>
   <v>       0.75000000       0.25000000       0.75000000 </v>
   <v>       0.00000000       0.00000000       0.00000000 </v>
   <v>       0.50000000       0.50000000       0.50000000 </v>
  </varray>
 </structure>
</modeling>
