<?xml version="1.0" encoding="ISO-8859-1"?>
<modeling>
 <generator>
  <i name="program" type="string">vasp </i>
  <i name="version" type="string">6.4.3  </i>
  <i name="subversion" type="string">19Mar24 (build Jun 21 2025 18:38:16) complex                          parallel </i>
  <i name="platform" type="string">LinuxIFC </i>
  <i name="date" type="string">2025 06 22 </i>
  <i name="time" type="string">19:16:30 </i>
 </generator>
 <incar>
  <i type="string" name="PREC">A</i>
  <i type="string" name="ALGO">fast</i>
  <i type="int" name="NELMIN">     4</i>
  <i type="int" name="IBRION">    -1</i>
  <i name="EDIFF">      0.00000100</i>
  <i type="int" name="NSW">     0</i>
  <i type="int" name="ISIF">     2</i>
  <i type="int" name="ISYM">     0</i>
  <i name="ENCUT">   1500.00000000</i>
  <i type="logical" name="LREAL"> F  </i>
  <i type="int" name="ISMEAR">     0</i>
  <i name="SIGMA">      0.05000000</i>
  <i name="PSTRESS">      0.00000000</i>
  <i type="logical" name="LWAVE"> F  </i>
  <i type="logical" name="LCHARG"> F  </i>
  <i type="logical" name="LASPH"> T  </i>
  <i type="string" name="GGA">PE</i>
 </incar>
 <primitive_cell>
  <structure name="primitive_cell" >
   <crystal>
    <varray name="basis" >
     <v>       2.80969200       0.00000000       0.00000000 </v>
     <v>       0.00000000       2.80969200       0.00000000 </v>
     <v>       0.00000000       0.00000000       2.80969200 </v>
    </varray>
    <i name="volume">     22.18074580 </i>
    <varray name="rec_basis" >
     <v>       0.35591090       0.00000000       0.00000000 </v>
     <v>       0.00000000       0.35591090       0.00000000 </v>
     <v>       0.00000000       0.00000000       0.35591090 </v>
    </varray>
   </crystal>
   <varray name="positions" >
    <v>       0.78287764       0.78287764       0.21712236 </v>
    <v>       0.21712236       0.21712236       0.21712236 </v>
    <v>       0.28287764       0.71712236       0.71712236 </v>
    <v>       0.71712236       0.28287764       0.71712236 </v>
    <v>       0.00000000       0.00000000       0.00000000 </v>
    <v>       0.50000000       0.50000000       0.50000000 </v>
   </varray>
  </structure>
  <varray name="primitive_index" >
   <v type="int" >        1 </v>
   <v type="int" >        2 </v>
   <v type="int" >        3 </v>
   <v type="int" >        4 </v>
   <v type="int" >        5 </v>
   <v type="int" >        6 </v>
  </varray>
 </primitive_cell>
 <kpoints>
  <generation param="Gamma">
   <v type="int" name="divisions">       1        1        1 </v>
   <v name="usershift">      0.00000000       0.00000000       0.00000000 </v>
   <v name="genvec1">      1.00000000       0.00000000       0.00000000 </v>
   <v name="genvec2">      0.00000000       1.00000000       0.00000000 </v>
   <v name="genvec3">      0.00000000       0.00000000       1.00000000 </v>
   <v name="shift">      0.00000000       0.00000000       0.00000000 </v>
  </generation>
  <varray name="kpointlist" >
   <v>       0.00000000       0.00000000       0.00000000 </v>
  </varray>
  <varray name="weights" >
   <v>       1.00000000 </v>
  </varray>
 </kpoints>
 <parameters>
  <separator name="general" >
   <i type="string" name="SYSTEM">unknown system</i>
   <i type="logical" name="LCOMPAT"> F  </i>
  </separator>
  <separator name="electronic" >
   <i type="string" name="PREC">a</i>
   <i name="ENMAX">   1500.00000000</i>
   <i name="ENAUG">    605.39200000</i>
   <i name="EDIFF">      0.00000100</i>
   <i type="int" name="IALGO">    68</i>
   <i type="int" name="IWAVPR">    10</i>
   <i type="int" name="NBANDS">    12</i>
   <i type="int" name="NBANDSLOW">    -1</i>
   <i type="int" name="NBANDSHIGH">    -1</i>
   <i name="NELECT">     16.00000000</i>
   <i type="int" name="TURBO">     0</i>
   <i type="int" name="IRESTART">     0</i>
   <i type="int" name="NREBOOT">     0</i>
   <i type="int" name="NMIN">     0</i>
   <i name="EREF">      0.00000000</i>
   <separator name="electronic smearing" >
    <i type="int" name="ISMEAR">     0</i>
    <i name="SIGMA">      0.05000000</i>
    <i name="KSPACING">      0.50000000</i>
    <i type="logical" name="KGAMMA"> T  </i>
    <i type="logical" name="KBLOWUP"> T  </i>
   </separator>
   <separator name="electronic projectors" >
    <i type="logical" name="LREAL"> F  </i>
    <v name="ROPT">      0.00000000      0.00000000</v>
    <i type="int" name="LMAXPAW">  -100</i>
    <i type="int" name="LMAXMIX">     2</i>
    <i type="logical" name="NLSPLINE"> F  </i>
   </separator>
   <separator name="electronic startup" >
    <i type="int" name="ISTART">     0</i>
    <i type="int" name="ICHARG">     2</i>
    <i type="int" name="INIWAV">     1</i>
   </separator>
   <separator name="electronic spin" >
    <i type="int" name="ISPIN">     1</i>
    <i type="logical" name="LNONCOLLINEAR"> F  </i>
    <v name="MAGMOM">      1.00000000      1.00000000      1.00000000      1.00000000      1.00000000      1.00000000</v>
    <i name="NUPDOWN">     -1.00000000</i>
    <i type="logical" name="LSORBIT"> F  </i>
    <v name="SAXIS">      0.00000000      0.00000000      1.00000000</v>
    <i type="logical" name="LSPIRAL"> F  </i>
    <v name="QSPIRAL">      0.00000000      0.00000000      0.00000000</v>
    <i type="logical" name="LZEROZ"> F  </i>
   </separator>
   <separator name="electronic exchange-correlation" >
    <i type="logical" name="LASPH"> T  </i>
   </separator>
   <separator name="electronic convergence" >
    <i type="int" name="NELM">    60</i>
    <i type="int" name="NELMDL">    -5</i>
    <i type="int" name="NELMIN">     4</i>
    <i name="ENINI">   1500.00000000</i>
    <separator name="electronic convergence detail" >
     <i type="logical" name="LDIAG"> T  </i>
     <i type="logical" name="LSUBROT"> F  </i>
     <i name="WEIMIN">      0.00000000</i>
     <i name="EBREAK">      0.00000002</i>
     <i name="DEPER">      0.30000000</i>
     <i type="int" name="NRMM">     4</i>
     <i name="TIME">      0.40000000</i>
    </separator>
   </separator>
   <separator name="electronic mixer" >
    <i name="AMIX">      0.40000000</i>
    <i name="BMIX">      1.00000000</i>
    <i name="AMIN">      0.10000000</i>
    <i name="AMIX_MAG">      1.60000000</i>
    <i name="BMIX_MAG">      1.00000000</i>
    <separator name="electronic mixer details" >
     <i type="int" name="IMIX">     4</i>
     <i type="logical" name="MIXFIRST"> F  </i>
     <i type="int" name="MAXMIX">   -45</i>
     <i name="WC">    100.00000000</i>
     <i type="int" name="INIMIX">     1</i>
     <i type="int" name="MIXPRE">     1</i>
     <i type="int" name="MREMOVE">     5</i>
    </separator>
   </separator>
   <separator name="electronic dipolcorrection" >
    <i type="logical" name="LDIPOL"> F  </i>
    <i type="logical" name="LMONO"> F  </i>
    <i type="int" name="IDIPOL">     0</i>
    <i name="EPSILON">      1.00000000</i>
    <v name="DIPOL">   -100.00000000   -100.00000000   -100.00000000</v>
    <i name="EFIELD">      0.00000000</i>
    <i type="logical" name="LVACPOTAV"> F  </i>
   </separator>
  </separator>
  <separator name="grids" >
   <i type="int" name="NGX">    36</i>
   <i type="int" name="NGY">    36</i>
   <i type="int" name="NGZ">    36</i>
   <i type="int" name="NGXF">    72</i>
   <i type="int" name="NGYF">    72</i>
   <i type="int" name="NGZF">    72</i>
   <i type="logical" name="ADDGRID"> F  </i>
  </separator>
  <separator name="ionic" >
   <i type="int" name="NSW">     0</i>
   <i type="int" name="IBRION">    -1</i>
   <i type="int" name="MDALGO">     0</i>
   <i type="int" name="ISIF">     2</i>
   <i name="PSTRESS">      0.00000000</i>
   <i name="EDIFFG">      0.00001000</i>
   <i type="int" name="NFREE">     0</i>
   <i name="POTIM">      0.50000000</i>
   <i name="SMASS">     -3.00000000</i>
   <i name="SCALEE">      1.00000000</i>
  </separator>
  <separator name="ionic md" >
   <i name="TEBEG">      0.00010000</i>
   <i name="TEEND">      0.00010000</i>
   <i type="int" name="NBLOCK">     1</i>
   <i type="int" name="KBLOCK">     1</i>
   <i type="int" name="NPACO">   256</i>
   <i name="APACO">     10.00000000</i>
  </separator>
  <separator name="symmetry" >
   <i type="int" name="ISYM">     0</i>
   <i name="SYMPREC">      0.00001000</i>
  </separator>
  <separator name="dos" >
   <i type="int" name="LORBIT">     0</i>
   <v name="RWIGS">     -1.00000000     -1.00000000</v>
   <i type="int" name="NEDOS">   301</i>
   <i name="EMIN">     10.00000000</i>
   <i name="EMAX">    -10.00000000</i>
   <i name="EFERMI">      0.00000000</i>
  </separator>
  <separator name="writing" >
   <i type="int" name="NWRITE">     2</i>
   <i type="logical" name="LWAVE"> F  </i>
   <i type="logical" name="LDOWNSAMPLE"> F  </i>
   <i type="logical" name="LCHARG"> F  </i>
   <i type="logical" name="LPARD"> F  </i>
   <i type="logical" name="LVTOT"> F  </i>
   <i type="logical" name="LVHAR"> F  </i>
   <i type="logical" name="LELF"> F  </i>
   <i type="logical" name="LOPTICS"> F  </i>
   <v name="STM">      0.00000000      0.00000000      0.00000000      0.00000000      0.00000000      0.00000000      0.00000000</v>
  </separator>
  <separator name="performance" >
   <i type="int" name="NPAR">     1</i>
   <i type="int" name="NSIM">     4</i>
   <i type="int" name="NBLK">    -1</i>
   <i type="logical" name="LPLANE"> T  </i>
   <i type="logical" name="LSCALAPACK"> T  </i>
   <i type="logical" name="LSCAAWARE"> F  </i>
   <i type="logical" name="LSCALU"> F  </i>
   <i type="logical" name="LASYNC"> F  </i>
   <i type="logical" name="LORBITALREAL"> F  </i>
  </separator>
  <separator name="miscellaneous" >
   <i type="int" name="IDIOT">     3</i>
   <i type="int" name="PHON_NSTRUCT">    -1</i>
   <i type="logical" name="LMUSIC"> F  </i>
   <v name="POMASS">      1.00000000     16.00000000</v>
   <v name="DARWINR">      0.00000000      0.00000000</v>
   <v name="DARWINV">      1.00000000      1.00000000</v>
   <i type="logical" name="LCORR"> T  </i>
  </separator>
  <i type="logical" name="GGA_COMPAT"> T  </i>
  <i type="logical" name="LBERRY"> F  </i>
  <i type="int" name="ICORELEVEL">     0</i>
  <i type="logical" name="LDAU"> F  </i>
  <i type="int" name="I_CONSTRAINED_M">     0</i>
  <separator name="electronic exchange-correlation" >
   <i type="string" name="GGA    ">PE</i>
   <i type="string" name="XC_C">1</i>
   <i type="int" name="VOSKOWN">     0</i>
   <i type="logical" name="LHFCALC"> F  </i>
   <i type="string" name="PRECFOCK"></i>
   <i type="logical" name="LSYMGRAD"> F  </i>
   <i type="logical" name="LHFONE"> F  </i>
   <i type="logical" name="LRHFCALC"> F  </i>
   <i type="logical" name="LTHOMAS"> F  </i>
   <i type="logical" name="LMODELHF"> F  </i>
   <i type="logical" name="LFOCKACE"> F  </i>
   <i name="ENCUT4O">     -1.00000000</i>
   <i type="int" name="EXXOEP">     0</i>
   <i type="int" name="FOURORBIT">     0</i>
   <i name="AEXX">      0.00000000</i>
   <i name="HFALPHA">      0.00000000</i>
   <i name="MCALPHA">      0.00000000</i>
   <i name="ALDAX">      1.00000000</i>
   <i name="AGGAX">      1.00000000</i>
   <i name="AMGGAX">      1.00000000</i>
   <i name="ALDAC">      1.00000000</i>
   <i name="AGGAC">      1.00000000</i>
   <i name="AMGGAC">      1.00000000</i>
   <i type="int" name="NKREDX">     1</i>
   <i type="int" name="NKREDY">     1</i>
   <i type="int" name="NKREDZ">     1</i>
   <i type="logical" name="SHIFTRED"> F  </i>
   <i type="logical" name="ODDONLY"> F  </i>
   <i type="logical" name="EVENONLY"> F  </i>
   <i type="int" name="LMAXFOCK">     0</i>
   <i type="int" name="NMAXFOCKAE">     0</i>
   <i type="logical" name="LFOCKAEDFT"> F  </i>
   <i name="HFSCREEN">      0.00000000</i>
   <i name="HFSCREENC">      0.00000000</i>
   <i type="int" name="NBANDSGWLOW">     0</i>
  </separator>
  <separator name="vdW DFT" >
   <i type="logical" name="LUSE_VDW"> F  </i>
   <i type="int" name="IVDW_NL">    -1</i>
   <i type="logical" name="LSPIN_VDW"> F  </i>
   <i name="ZAB_VDW">     -0.84910000</i>
   <i name="GAMMA_VDW">      1.39626340</i>
   <i name="ALPHA_VDW">      0.00000000</i>
   <i name="PARAM1">      0.12340000</i>
   <i name="PARAM2">      1.00000000</i>
   <i name="BPARAM">      6.30000000</i>
   <i name="CPARAM">      0.00930000</i>
  </separator>
  <separator name="model GW" >
   <i type="int" name="MODEL_GW">     0</i>
   <i name="MODEL_EPS0">      2.21807458</i>
   <i name="MODEL_ALPHA">      1.00000000</i>
  </separator>
  <separator name="linear response parameters" >
   <i type="logical" name="LEPSILON"> F  </i>
   <i type="logical" name="LRPA"> F  </i>
   <i type="logical" name="LNABLA"> F  </i>
   <i type="logical" name="LVEL"> F  </i>
   <i name="CSHIFT">      0.10000000</i>
   <i name="OMEGAMAX">     -1.00000000</i>
   <i name="DEG_THRESHOLD">      0.00200000</i>
   <i name="RTIME">     -0.10000000</i>
   <i name="WPLASMAI">      0.00000000</i>
   <v name="DFIELD">      0.00000000      0.00000000      0.00000000</v>
   <v name="WPLASMA">      0.00000000      0.00000000      0.00000000      0.00000000      0.00000000      0.00000000      0.00000000      0.00000000      0.00000000</v>
  </separator>
  <separator name="orbital magnetization" >
   <i type="logical" name="NUCIND"> F  </i>
   <v name="MAGPOS">      0.00000000      0.00000000      0.00000000</v>
   <i type="logical" name="LNICSALL"> T  </i>
   <i type="logical" name="ORBITALMAG"> F  </i>
   <i type="logical" name="LMAGBLOCH"> F  </i>
   <i type="logical" name="LCHIMAG"> F  </i>
   <i type="logical" name="LGAUGE"> T  </i>
   <i type="int" name="MAGATOM">     0</i>
   <v name="MAGDIPOL">      0.00000000      0.00000000      0.00000000</v>
   <v name="AVECCONST">      0.00000000      0.00000000      0.00000000</v>
  </separator>
  <separator name="response functions" >
   <i type="logical" name="LALL_IN_ONE"> F  </i>
   <i type="int" name="IALL_IN_ONE">    -1</i>
   <i type="int" name="NBANDS_WAVE">    -1</i>
   <i type="logical" name="LFINITE_TEMPERATURE"> F  </i>
   <i type="logical" name="LADDER"> F  </i>
   <i type="logical" name="LRPAFORCE"> F  </i>
   <i type="logical" name="LFXC"> F  </i>
   <i type="logical" name="LHARTREE"> T  </i>
   <i type="int" name="IBSE">     0</i>
   <v type="int" name="KPOINT">    -1     0     0     0</v>
   <i type="logical" name="LTCTC"> F  </i>
   <i type="logical" name="LTCTE"> F  </i>
   <i type="logical" name="LTETE"> F  </i>
   <i type="logical" name="LTRIPLET"> F  </i>
   <i type="logical" name="LFXCEPS"> F  </i>
   <i type="logical" name="LFXHEG"> F  </i>
   <i type="int" name="NATURALO">     2</i>
   <i type="logical" name="LHOLEGF"> F  </i>
   <i type="logical" name="L2ORDER"> F  </i>
   <i type="logical" name="LDMP1"> F  </i>
   <i type="logical" name="LMP2LT"> F  </i>
   <i type="logical" name="LSMP2LT"> F  </i>
   <i type="logical" name="LGWLF"> F  </i>
   <i name="ENCUTGW">     -1.60000002</i>
   <i name="ENCUTGWSOFT">     -1.60000002</i>
   <i name="ENCUTLF">     -1.00000000</i>
   <i type="logical" name="ESF_SPLINES"> F  </i>
   <i name="ESF_CONV">      0.01000000</i>
   <i type="int" name="ESF_NINTER">    15</i>
   <i type="int" name="LMAXMP2">    -1</i>
   <i name="SCISSOR">      0.00000000</i>
   <i type="int" name="NOMEGA">     0</i>
   <i type="int" name="NOMEGAR">     0</i>
   <i type="int" name="NBANDSGW">    -1</i>
   <i type="int" name="NBANDSO">    -1</i>
   <i type="int" name="NBANDSV">    -1</i>
   <i type="int" name="NELMGW">     1</i>
   <i type="int" name="NELMHF">     1</i>
   <i type="int" name="DIM">     3</i>
   <i type="int" name="IESPILON">     4</i>
   <i type="int" name="ANTIRES">     0</i>
   <i name="OMEGAMAX">    -30.00000000</i>
   <i name="OMEGAMIN">    -30.00000000</i>
   <i name="OMEGATL">   -200.00000000</i>
   <i type="int" name="OMEGAGRID">     0</i>
   <i name="CSHIFT">     -0.10000000</i>
   <i type="logical" name="LSELFENERGY"> F  </i>
   <i type="logical" name="LSPECTRAL"> F  </i>
   <i type="logical" name="LSPECTRALGW"> F  </i>
   <i type="logical" name="LSINGLES"> F  </i>
   <i type="logical" name="LFERMIGW"> F  </i>
   <i type="logical" name="ODDONLYGW"> F  </i>
   <i type="logical" name="EVENONLYGW"> F  </i>
   <i type="int" name="NKREDLFX">     1</i>
   <i type="int" name="NKREDLFY">     1</i>
   <i type="int" name="NKREDLFZ">     1</i>
   <i type="int" name="MAXMEM">  2800</i>
   <i type="int" name="TELESCOPE">     0</i>
   <i type="int" name="NTAUPAR">    -1</i>
   <i type="int" name="NOMEGAPAR">    -1</i>
   <i name="DAMP_NEWTON">      0.80000001</i>
   <i name="LAMBDA">      1.00000000</i>
  </separator>
  <separator name="External order field" >
   <i name="OFIELD_KAPPA">      0.00000000</i>
   <v name="OFIELD_K">      0.00000000      0.00000000      0.00000000</v>
   <i name="OFIELD_Q6_NEAR">      0.00000000</i>
   <i name="OFIELD_Q6_FAR">      0.00000000</i>
   <i name="OFIELD_A">      0.00000000</i>
  </separator>
  <separator name="optional k-points parameters" >
   <i type="int" name="KPOINTS_OPT_MODE">     1</i>
   <i type="logical" name="LKPOINTS_OPT"> F  </i>
  </separator>
 </parameters>
 <atominfo>
  <atoms>       6 </atoms>
  <types>       2 </types>
  <array name="atoms" >
   <dimension dim="1">ion</dimension>
   <field type="string">element</field>
   <field type="int">atomtype</field>
   <set>
    <rc><c>H </c><c>   1</c></rc>
    <rc><c>H </c><c>   1</c></rc>
    <rc><c>H </c><c>   1</c></rc>
    <rc><c>H </c><c>   1</c></rc>
    <rc><c>O </c><c>   2</c></rc>
    <rc><c>O </c><c>   2</c></rc>
   </set>
  </array>
  <array name="atomtypes" >
   <dimension dim="1">type</dimension>
   <field type="int">atomspertype</field>
   <field type="string">element</field>
   <field>mass</field>
   <field>valence</field>
   <field type="string">pseudopotential</field>
   <set>
    <rc><c>   4</c><c>H </c><c>      1.00000000</c><c>      1.00000000</c><c>  PAW_PBE H 15Jun2001                   </c></rc>
    <rc><c>   2</c><c>O </c><c>     16.00000000</c><c>      6.00000000</c><c>  PAW_PBE O 08Apr2002                   </c></rc>
   </set>
  </array>
 </atominfo>
 <structure name="initialpos" >
  <crystal>
   <varray name="basis" >
    <v>       2.80969200       0.00000000       0.00000000 </v>
    <v>       0.00000000       2.80969200       0.00000000 </v>
    <v>       0.00000000       0.00000000       2.80969200 </v>
   </varray>
   <i name="volume">     22.18074580 </i>
   <varray name="rec_basis" >
    <v>       0.35591090       0.00000000       0.00000000 </v>
    <v>       0.00000000       0.35591090       0.00000000 </v>
    <v>       0.00000000       0.00000000       0.35591090 </v>
   </varray>
  </crystal>
  <varray name="positions" >
   <v>       0.78287764       0.78287764       0.21712236 </v>
   <v>       0.21712236       0.21712236       0.21712236 </v>
   <v>       0.28287764       0.71712236       0.71712236 </v>
   <v>       0.71712236       0.28287764       0.71712236 </v>
   <v>       0.00000000       0.00000000       0.00000000 </v>
   <v>       0.50000000       0.50000000       0.50000000 </v>
  </varray>
 </structure>
 <calculation>
  <scstep>
   <time name="dav">    0.03    0.03</time>
   <time name="total">    0.32    0.32</time>
   <energy>
    <i name="alphaZ">     40.44071196 </i>
    <i name="ewald">   -757.24489080 </i>
    <i name="hartreedc">   -179.92324992 </i>
    <i name="XCdc">     68.40766217 </i>
    <i name="pawpsdc">    701.63506352 </i>
    <i name="pawaedc">   -705.26791599 </i>
    <i name="eentropy">     -0.00000000 </i>
    <i name="bandstr">     41.59928848 </i>
    <i name="atom">    914.71008676 </i>
    <i name="e_fr_energy">    124.35675617 </i>
    <i name="e_wo_entrp">    124.35675617 </i>
    <i name="e_0_energy">    124.35675617 </i>
   </energy>
  </scstep>
  <scstep>
   <time name="dav">    0.03    0.03</time>
   <time name="total">    0.03    0.03</time>
   <energy>
    <i name="e_fr_energy">    -17.56153519 </i>
    <i name="e_wo_entrp">    -17.56153519 </i>
    <i name="e_0_energy">    -17.56153519 </i>
   </energy>
  </scstep>
  <scstep>
   <time name="dav">    0.03    0.03</time>
   <time name="total">    0.03    0.03</time>
   <energy>
    <i name="e_fr_energy">    -21.39215307 </i>
    <i name="e_wo_entrp">    -21.39215307 </i>
    <i name="e_0_energy">    -21.39215307 </i>
   </energy>
  </scstep>
  <scstep>
   <time name="dav">    0.02    0.02</time>
   <time name="total">    0.02    0.02</time>
   <energy>
    <i name="e_fr_energy">    -21.41148315 </i>
    <i name="e_wo_entrp">    -21.41148315 </i>
    <i name="e_0_energy">    -21.41148315 </i>
   </energy>
  </scstep>
  <scstep>
   <time name="dav">    0.02    0.02</time>
   <time name="total">    0.04    0.04</time>
   <energy>
    <i name="e_fr_energy">    -21.41170105 </i>
    <i name="e_wo_entrp">    -21.41170105 </i>
    <i name="e_0_energy">    -21.41170105 </i>
   </energy>
  </scstep>
  <scstep>
   <time name="diag">    0.01    0.01</time>
   <time name="diis">    0.02    0.02</time>
   <time name="orth">    0.00    0.00</time>
   <time name="total">    0.33    0.33</time>
   <energy>
    <i name="e_fr_energy">    -17.13710516 </i>
    <i name="e_wo_entrp">    -17.13710516 </i>
    <i name="e_0_energy">    -17.13710516 </i>
   </energy>
  </scstep>
  <scstep>
   <time name="diag">    0.01    0.01</time>
   <time name="diis">    0.02    0.02</time>
   <time name="orth">    0.00    0.00</time>
   <time name="total">    0.33    0.33</time>
   <energy>
    <i name="e_fr_energy">    -17.13923661 </i>
    <i name="e_wo_entrp">    -17.13923661 </i>
    <i name="e_0_energy">    -17.13923661 </i>
   </energy>
  </scstep>
  <scstep>
   <time name="diag">    0.01    0.01</time>
   <time name="diis">    0.02    0.02</time>
   <time name="orth">    0.00    0.00</time>
   <time name="total">    0.33    0.33</time>
   <energy>
    <i name="e_fr_energy">    -17.22159945 </i>
    <i name="e_wo_entrp">    -17.22159945 </i>
    <i name="e_0_energy">    -17.22159945 </i>
   </energy>
  </scstep>
  <scstep>
   <time name="diag">    0.01    0.01</time>
   <time name="diis">    0.02    0.02</time>
   <time name="orth">    0.00    0.00</time>
   <time name="total">    0.33    0.33</time>
   <energy>
    <i name="e_fr_energy">    -17.20368153 </i>
    <i name="e_wo_entrp">    -17.20368153 </i>
    <i name="e_0_energy">    -17.20368153 </i>
   </energy>
  </scstep>
  <scstep>
   <time name="diag">    0.01    0.01</time>
   <time name="diis">    0.02    0.02</time>
   <time name="orth">    0.00    0.00</time>
   <time name="total">    0.33    0.33</time>
   <energy>
    <i name="e_fr_energy">    -17.20437963 </i>
    <i name="e_wo_entrp">    -17.20437963 </i>
    <i name="e_0_energy">    -17.20437963 </i>
   </energy>
  </scstep>
  <scstep>
   <time name="diag">    0.01    0.01</time>
   <time name="diis">    0.02    0.02</time>
   <time name="orth">    0.00    0.00</time>
   <time name="total">    0.33    0.33</time>
   <energy>
    <i name="e_fr_energy">    -17.20401465 </i>
    <i name="e_wo_entrp">    -17.20401465 </i>
    <i name="e_0_energy">    -17.20401465 </i>
   </energy>
  </scstep>
  <scstep>
   <time name="diag">    0.01    0.01</time>
   <time name="diis">    0.03    0.03</time>
   <time name="orth">    0.00    0.00</time>
   <time name="total">    0.33    0.33</time>
   <energy>
    <i name="e_fr_energy">    -17.20402262 </i>
    <i name="e_wo_entrp">    -17.20402262 </i>
    <i name="e_0_energy">    -17.20402262 </i>
   </energy>
  </scstep>
  <scstep>
   <time name="diag">    0.01    0.01</time>
   <time name="diis">    0.02    0.02</time>
   <time name="orth">    0.00    0.00</time>
   <time name="total">    0.33    0.33</time>
   <energy>
    <i name="e_fr_energy">    -17.20402386 </i>
    <i name="e_wo_entrp">    -17.20402386 </i>
    <i name="e_0_energy">    -17.20402386 </i>
   </energy>
  </scstep>
  <scstep>
   <time name="diag">    0.01    0.01</time>
   <time name="diis">    0.02    0.02</time>
   <time name="orth">    0.00    0.00</time>
   <time name="total">    0.31    0.31</time>
   <energy>
    <i name="alphaZ">     40.44071196 </i>
    <i name="ewald">   -757.24489080 </i>
    <i name="hartreedc">   -232.36050572 </i>
    <i name="XCdc">     72.42125943 </i>
    <i name="pawpsdc">   1235.43646533 </i>
    <i name="pawaedc">  -1240.90662041 </i>
    <i name="eentropy">     -0.00000000 </i>
    <i name="bandstr">    -49.70053051 </i>
    <i name="atom">    914.71008676 </i>
    <i name="e_fr_energy">    -17.20402397 </i>
    <i name="e_wo_entrp">    -17.20402397 </i>
    <i name="e_0_energy">    -17.20402397 </i>
   </energy>
  </scstep>
  <structure>
   <crystal>
    <varray name="basis" >
     <v>       2.80969200       0.00000000       0.00000000 </v>
     <v>       0.00000000       2.80969200       0.00000000 </v>
     <v>       0.00000000       0.00000000       2.80969200 </v>
    </varray>
    <i name="volume">     22.18074580 </i>
    <varray name="rec_basis" >
     <v>       0.35591090       0.00000000       0.00000000 </v>
     <v>       0.00000000       0.35591090       0.00000000 </v>
     <v>       0.00000000       0.00000000       0.35591090 </v>
    </varray>
   </crystal>
   <varray name="positions" >
    <v>       0.78287764       0.78287764       0.21712236 </v>
    <v>       0.21712236       0.21712236       0.21712236 </v>
    <v>       0.28287764       0.71712236       0.71712236 </v>
    <v>       0.71712236       0.28287764       0.71712236 </v>
    <v>       0.00000000       0.00000000       0.00000000 </v>
    <v>       0.50000000       0.50000000       0.50000000 </v>
   </varray>
  </structure>
  <varray name="forces" >
   <v>       1.18812102       1.18818015      -0.99246572 </v>
   <v>      -1.18800340      -1.18819944      -0.99247331 </v>
   <v>       1.18817073      -1.18820670      -0.99248059 </v>
   <v>      -1.18802477       1.18820273      -0.99243962 </v>
   <v>      -0.00010248       0.00004491       1.98493872 </v>
   <v>      -0.00016110      -0.00002164       1.98492052 </v>
  </varray>
  <varray name="stress" >
   <v>    1340.15493500       0.00239054      -0.00411234 </v>
   <v>       0.00239025    1340.16018760      -0.00288566 </v>
   <v>      -0.00411203      -0.00288542    1374.46266738 </v>
  </varray>
  <energy>
   <i name="e_fr_energy">    -17.20402397 </i>
   <i name="e_wo_entrp">    -17.20402397 </i>
   <i name="e_0_energy">    -17.20402397 </i>
  </energy>
  <time name="totalsc">    4.10    4.11</time>
  <eigenvalues>
   <array>
    <dimension dim="1">band</dimension>
    <dimension dim="2">kpoint</dimension>
    <dimension dim="3">spin</dimension>
    <field>eigene</field>
    <field>occ</field>
    <set>
     <set comment="spin 1">
      <set comment="kpoint 1">
       <r>  -18.2723    1.0000 </r>
       <r>  -11.9891    1.0000 </r>
       <r>   -2.8633    1.0000 </r>
       <r>   -2.8633    1.0000 </r>
       <r>   -2.1494    1.0000 </r>
       <r>    4.3321    1.0000 </r>
       <r>    4.4775    1.0000 </r>
       <r>    4.4775    1.0000 </r>
       <r>   12.2298    0.0000 </r>
       <r>   14.6131    0.0000 </r>
       <r>   14.6272    0.0000 </r>
       <r>   20.1900    0.0000 </r>
      </set>
     </set>
    </set>
   </array>
  </eigenvalues>
  <separator name="orbital magnetization" >
   <v name="MAGDIPOLOUT">      0.00000000      0.00000000      0.00000000</v>
  </separator>
  <dos>
   <i name="efermi">      4.78426426 </i>
   <total>
    <array>
     <dimension dim="1">gridpoints</dimension>
     <dimension dim="2">spin</dimension>
     <field>energy</field>
     <field>total</field>
     <field>integrated</field>
     <set>
      <set comment="spin 1">
       <r>   -20.1954     0.0000     0.0000 </r>
       <r>   -20.0544     0.0000     0.0000 </r>
       <r>   -19.9134     0.0000     0.0000 </r>
       <r>   -19.7723     0.0000     0.0000 </r>
       <r>   -19.6313     0.0000     0.0000 </r>
       <r>   -19.4903     0.0000     0.0000 </r>
       <r>   -19.3492     0.0000     0.0000 </r>
       <r>   -19.2082     0.0000     0.0000 </r>
       <r>   -19.0672     0.0000     0.0000 </r>
       <r>   -18.9262     0.0000     0.0000 </r>
       <r>   -18.7851     0.0000     0.0000 </r>
       <r>   -18.6441     0.0000     0.0000 </r>
       <r>   -18.5031     0.0000     0.0000 </r>
       <r>   -18.3620     0.0790     0.0111 </r>
       <r>   -18.2210    13.0608     1.8531 </r>
       <r>   -18.0800     1.0418     2.0000 </r>
       <r>   -17.9390     0.0000     2.0000 </r>
       <r>   -17.7979     0.0000     2.0000 </r>
       <r>   -17.6569     0.0000     2.0000 </r>
       <r>   -17.5159     0.0000     2.0000 </r>
       <r>   -17.3748     0.0000     2.0000 </r>
       <r>   -17.2338     0.0000     2.0000 </r>
       <r>   -17.0928     0.0000     2.0000 </r>
       <r>   -16.9518     0.0000     2.0000 </r>
       <r>   -16.8107     0.0000     2.0000 </r>
       <r>   -16.6697     0.0000     2.0000 </r>
       <r>   -16.5287     0.0000     2.0000 </r>
       <r>   -16.3876     0.0000     2.0000 </r>
       <r>   -16.2466     0.0000     2.0000 </r>
       <r>   -16.1056     0.0000     2.0000 </r>
       <r>   -15.9646     0.0000     2.0000 </r>
       <r>   -15.8235     0.0000     2.0000 </r>
       <r>   -15.6825     0.0000     2.0000 </r>
       <r>   -15.5415     0.0000     2.0000 </r>
       <r>   -15.4004     0.0000     2.0000 </r>
       <r>   -15.2594     0.0000     2.0000 </r>
       <r>   -15.1184     0.0000     2.0000 </r>
       <r>   -14.9774     0.0000     2.0000 </r>
       <r>   -14.8363     0.0000     2.0000 </r>
       <r>   -14.6953     0.0000     2.0000 </r>
       <r>   -14.5543     0.0000     2.0000 </r>
       <r>   -14.4132     0.0000     2.0000 </r>
       <r>   -14.2722     0.0000     2.0000 </r>
       <r>   -14.1312     0.0000     2.0000 </r>
       <r>   -13.9902     0.0000     2.0000 </r>
       <r>   -13.8491     0.0000     2.0000 </r>
       <r>   -13.7081     0.0000     2.0000 </r>
       <r>   -13.5671     0.0000     2.0000 </r>
       <r>   -13.4260     0.0000     2.0000 </r>
       <r>   -13.2850     0.0000     2.0000 </r>
       <r>   -13.1440     0.0000     2.0000 </r>
       <r>   -13.0030     0.0000     2.0000 </r>
       <r>   -12.8619     0.0000     2.0000 </r>
       <r>   -12.7209     0.0000     2.0000 </r>
       <r>   -12.5799     0.0000     2.0000 </r>
       <r>   -12.4388     0.0000     2.0000 </r>
       <r>   -12.2978     0.0000     2.0000 </r>
       <r>   -12.1568     0.0000     2.0000 </r>
       <r>   -12.0158     3.1981     2.4510 </r>
       <r>   -11.8747    10.9748     3.9988 </r>
       <r>   -11.7337     0.0086     4.0000 </r>
       <r>   -11.5927     0.0000     4.0000 </r>
       <r>   -11.4516     0.0000     4.0000 </r>
       <r>   -11.3106     0.0000     4.0000 </r>
       <r>   -11.1696     0.0000     4.0000 </r>
       <r>   -11.0286     0.0000     4.0000 </r>
       <r>   -10.8875     0.0000     4.0000 </r>
       <r>   -10.7465     0.0000     4.0000 </r>
       <r>   -10.6055     0.0000     4.0000 </r>
       <r>   -10.4644     0.0000     4.0000 </r>
       <r>   -10.3234     0.0000     4.0000 </r>
       <r>   -10.1824     0.0000     4.0000 </r>
       <r>   -10.0414     0.0000     4.0000 </r>
       <r>    -9.9003     0.0000     4.0000 </r>
       <r>    -9.7593     0.0000     4.0000 </r>
       <r>    -9.6183     0.0000     4.0000 </r>
       <r>    -9.4772     0.0000     4.0000 </r>
       <r>    -9.3362     0.0000     4.0000 </r>
       <r>    -9.1952     0.0000     4.0000 </r>
       <r>    -9.0542     0.0000     4.0000 </r>
       <r>    -8.9131     0.0000     4.0000 </r>
       <r>    -8.7721     0.0000     4.0000 </r>
       <r>    -8.6311     0.0000     4.0000 </r>
       <r>    -8.4900     0.0000     4.0000 </r>
       <r>    -8.3490     0.0000     4.0000 </r>
       <r>    -8.2080     0.0000     4.0000 </r>
       <r>    -8.0670     0.0000     4.0000 </r>
       <r>    -7.9259     0.0000     4.0000 </r>
       <r>    -7.7849     0.0000     4.0000 </r>
       <r>    -7.6439     0.0000     4.0000 </r>
       <r>    -7.5028     0.0000     4.0000 </r>
       <r>    -7.3618     0.0000     4.0000 </r>
       <r>    -7.2208     0.0000     4.0000 </r>
       <r>    -7.0798     0.0000     4.0000 </r>
       <r>    -6.9387     0.0000     4.0000 </r>
       <r>    -6.7977     0.0000     4.0000 </r>
       <r>    -6.6567     0.0000     4.0000 </r>
       <r>    -6.5156     0.0000     4.0000 </r>
       <r>    -6.3746     0.0000     4.0000 </r>
       <r>    -6.2336     0.0000     4.0000 </r>
       <r>    -6.0926     0.0000     4.0000 </r>
       <r>    -5.9515     0.0000     4.0000 </r>
       <r>    -5.8105     0.0000     4.0000 </r>
       <r>    -5.6695     0.0000     4.0000 </r>
       <r>    -5.5284     0.0000     4.0000 </r>
       <r>    -5.3874     0.0000     4.0000 </r>
       <r>    -5.2464     0.0000     4.0000 </r>
       <r>    -5.1054     0.0000     4.0000 </r>
       <r>    -4.9643     0.0000     4.0000 </r>
       <r>    -4.8233     0.0000     4.0000 </r>
       <r>    -4.6823     0.0000     4.0000 </r>
       <r>    -4.5412     0.0000     4.0000 </r>
       <r>    -4.4002     0.0000     4.0000 </r>
       <r>    -4.2592     0.0000     4.0000 </r>
       <r>    -4.1182     0.0000     4.0000 </r>
       <r>    -3.9771     0.0000     4.0000 </r>
       <r>    -3.8361     0.0000     4.0000 </r>
       <r>    -3.6951     0.0000     4.0000 </r>
       <r>    -3.5540     0.0000     4.0000 </r>
       <r>    -3.4130     0.0000     4.0000 </r>
       <r>    -3.2720     0.0000     4.0000 </r>
       <r>    -3.1310     0.0000     4.0000 </r>
       <r>    -2.9899     0.0048     4.0007 </r>
       <r>    -2.8489    18.6531     6.6313 </r>
       <r>    -2.7079     9.7049     8.0000 </r>
       <r>    -2.5668     0.0002     8.0000 </r>
       <r>    -2.4258     0.0000     8.0000 </r>
       <r>    -2.2848     0.0009     8.0001 </r>
       <r>    -2.1438     7.9879     9.1267 </r>
       <r>    -2.0027     6.1925    10.0000 </r>
       <r>    -1.8617     0.0002    10.0000 </r>
       <r>    -1.7207     0.0000    10.0000 </r>
       <r>    -1.5796     0.0000    10.0000 </r>
       <r>    -1.4386     0.0000    10.0000 </r>
       <r>    -1.2976     0.0000    10.0000 </r>
       <r>    -1.1566     0.0000    10.0000 </r>
       <r>    -1.0155     0.0000    10.0000 </r>
       <r>    -0.8745     0.0000    10.0000 </r>
       <r>    -0.7335     0.0000    10.0000 </r>
       <r>    -0.5924     0.0000    10.0000 </r>
       <r>    -0.4514     0.0000    10.0000 </r>
       <r>    -0.3104     0.0000    10.0000 </r>
       <r>    -0.1694     0.0000    10.0000 </r>
       <r>    -0.0283     0.0000    10.0000 </r>
       <r>     0.1127     0.0000    10.0000 </r>
       <r>     0.2537     0.0000    10.0000 </r>
       <r>     0.3948     0.0000    10.0000 </r>
       <r>     0.5358     0.0000    10.0000 </r>
       <r>     0.6768     0.0000    10.0000 </r>
       <r>     0.8178     0.0000    10.0000 </r>
       <r>     0.9589     0.0000    10.0000 </r>
       <r>     1.0999     0.0000    10.0000 </r>
       <r>     1.2409     0.0000    10.0000 </r>
       <r>     1.3820     0.0000    10.0000 </r>
       <r>     1.5230     0.0000    10.0000 </r>
       <r>     1.6640     0.0000    10.0000 </r>
       <r>     1.8050     0.0000    10.0000 </r>
       <r>     1.9461     0.0000    10.0000 </r>
       <r>     2.0871     0.0000    10.0000 </r>
       <r>     2.2281     0.0000    10.0000 </r>
       <r>     2.3692     0.0000    10.0000 </r>
       <r>     2.5102     0.0000    10.0000 </r>
       <r>     2.6512     0.0000    10.0000 </r>
       <r>     2.7922     0.0000    10.0000 </r>
       <r>     2.9333     0.0000    10.0000 </r>
       <r>     3.0743     0.0000    10.0000 </r>
       <r>     3.2153     0.0000    10.0000 </r>
       <r>     3.3564     0.0000    10.0000 </r>
       <r>     3.4974     0.0000    10.0000 </r>
       <r>     3.6384     0.0000    10.0000 </r>
       <r>     3.7794     0.0000    10.0000 </r>
       <r>     3.9205     0.0000    10.0000 </r>
       <r>     4.0615     0.0000    10.0000 </r>
       <r>     4.2025     0.0018    10.0002 </r>
       <r>     4.3436     8.8992    11.2553 </r>
       <r>     4.4846    21.7056    14.3164 </r>
       <r>     4.6256    11.9376    15.9999 </r>
       <r>     4.7666     0.0004    16.0000 </r>
       <r>     4.9077     0.0000    16.0000 </r>
       <r>     5.0487     0.0000    16.0000 </r>
       <r>     5.1897     0.0000    16.0000 </r>
       <r>     5.3307     0.0000    16.0000 </r>
       <r>     5.4718     0.0000    16.0000 </r>
       <r>     5.6128     0.0000    16.0000 </r>
       <r>     5.7538     0.0000    16.0000 </r>
       <r>     5.8949     0.0000    16.0000 </r>
       <r>     6.0359     0.0000    16.0000 </r>
       <r>     6.1769     0.0000    16.0000 </r>
       <r>     6.3179     0.0000    16.0000 </r>
       <r>     6.4590     0.0000    16.0000 </r>
       <r>     6.6000     0.0000    16.0000 </r>
       <r>     6.7410     0.0000    16.0000 </r>
       <r>     6.8821     0.0000    16.0000 </r>
       <r>     7.0231     0.0000    16.0000 </r>
       <r>     7.1641     0.0000    16.0000 </r>
       <r>     7.3051     0.0000    16.0000 </r>
       <r>     7.4462     0.0000    16.0000 </r>
       <r>     7.5872     0.0000    16.0000 </r>
       <r>     7.7282     0.0000    16.0000 </r>
       <r>     7.8693     0.0000    16.0000 </r>
       <r>     8.0103     0.0000    16.0000 </r>
       <r>     8.1513     0.0000    16.0000 </r>
       <r>     8.2923     0.0000    16.0000 </r>
       <r>     8.4334     0.0000    16.0000 </r>
       <r>     8.5744     0.0000    16.0000 </r>
       <r>     8.7154     0.0000    16.0000 </r>
       <r>     8.8565     0.0000    16.0000 </r>
       <r>     8.9975     0.0000    16.0000 </r>
       <r>     9.1385     0.0000    16.0000 </r>
       <r>     9.2795     0.0000    16.0000 </r>
       <r>     9.4206     0.0000    16.0000 </r>
       <r>     9.5616     0.0000    16.0000 </r>
       <r>     9.7026     0.0000    16.0000 </r>
       <r>     9.8437     0.0000    16.0000 </r>
       <r>     9.9847     0.0000    16.0000 </r>
       <r>    10.1257     0.0000    16.0000 </r>
       <r>    10.2667     0.0000    16.0000 </r>
       <r>    10.4078     0.0000    16.0000 </r>
       <r>    10.5488     0.0000    16.0000 </r>
       <r>    10.6898     0.0000    16.0000 </r>
       <r>    10.8309     0.0000    16.0000 </r>
       <r>    10.9719     0.0000    16.0000 </r>
       <r>    11.1129     0.0000    16.0000 </r>
       <r>    11.2539     0.0000    16.0000 </r>
       <r>    11.3950     0.0000    16.0000 </r>
       <r>    11.5360     0.0000    16.0000 </r>
       <r>    11.6770     0.0000    16.0000 </r>
       <r>    11.8181     0.0000    16.0000 </r>
       <r>    11.9591     0.0000    16.0000 </r>
       <r>    12.1001     0.0017    16.0002 </r>
       <r>    12.2411     8.8809    17.2527 </r>
       <r>    12.3822     5.2988    18.0000 </r>
       <r>    12.5232     0.0001    18.0000 </r>
       <r>    12.6642     0.0000    18.0000 </r>
       <r>    12.8053     0.0000    18.0000 </r>
       <r>    12.9463     0.0000    18.0000 </r>
       <r>    13.0873     0.0000    18.0000 </r>
       <r>    13.2283     0.0000    18.0000 </r>
       <r>    13.3694     0.0000    18.0000 </r>
       <r>    13.5104     0.0000    18.0000 </r>
       <r>    13.6514     0.0000    18.0000 </r>
       <r>    13.7925     0.0000    18.0000 </r>
       <r>    13.9335     0.0000    18.0000 </r>
       <r>    14.0745     0.0000    18.0000 </r>
       <r>    14.2155     0.0000    18.0000 </r>
       <r>    14.3566     0.0000    18.0000 </r>
       <r>    14.4976     0.0095    18.0013 </r>
       <r>    14.6386    19.7324    20.7842 </r>
       <r>    14.7797     8.6210    22.0000 </r>
       <r>    14.9207     0.0001    22.0000 </r>
       <r>    15.0617     0.0000    22.0000 </r>
       <r>    15.2027     0.0000    22.0000 </r>
       <r>    15.3438     0.0000    22.0000 </r>
       <r>    15.4848     0.0000    22.0000 </r>
       <r>    15.6258     0.0000    22.0000 </r>
       <r>    15.7669     0.0000    22.0000 </r>
       <r>    15.9079     0.0000    22.0000 </r>
       <r>    16.0489     0.0000    22.0000 </r>
       <r>    16.1899     0.0000    22.0000 </r>
       <r>    16.3310     0.0000    22.0000 </r>
       <r>    16.4720     0.0000    22.0000 </r>
       <r>    16.6130     0.0000    22.0000 </r>
       <r>    16.7541     0.0000    22.0000 </r>
       <r>    16.8951     0.0000    22.0000 </r>
       <r>    17.0361     0.0000    22.0000 </r>
       <r>    17.1771     0.0000    22.0000 </r>
       <r>    17.3182     0.0000    22.0000 </r>
       <r>    17.4592     0.0000    22.0000 </r>
       <r>    17.6002     0.0000    22.0000 </r>
       <r>    17.7413     0.0000    22.0000 </r>
       <r>    17.8823     0.0000    22.0000 </r>
       <r>    18.0233     0.0000    22.0000 </r>
       <r>    18.1643     0.0000    22.0000 </r>
       <r>    18.3054     0.0000    22.0000 </r>
       <r>    18.4464     0.0000    22.0000 </r>
       <r>    18.5874     0.0000    22.0000 </r>
       <r>    18.7285     0.0000    22.0000 </r>
       <r>    18.8695     0.0000    22.0000 </r>
       <r>    19.0105     0.0000    22.0000 </r>
       <r>    19.1515     0.0000    22.0000 </r>
       <r>    19.2926     0.0000    22.0000 </r>
       <r>    19.4336     0.0000    22.0000 </r>
       <r>    19.5746     0.0000    22.0000 </r>
       <r>    19.7157     0.0000    22.0000 </r>
       <r>    19.8567     0.0000    22.0000 </r>
       <r>    19.9977     0.0000    22.0000 </r>
       <r>    20.1387     1.0418    22.1469 </r>
       <r>    20.2798    13.0608    23.9889 </r>
       <r>    20.4208     0.0790    24.0000 </r>
       <r>    20.5618     0.0000    24.0000 </r>
       <r>    20.7029     0.0000    24.0000 </r>
       <r>    20.8439     0.0000    24.0000 </r>
       <r>    20.9849     0.0000    24.0000 </r>
       <r>    21.1259     0.0000    24.0000 </r>
       <r>    21.2670     0.0000    24.0000 </r>
       <r>    21.4080     0.0000    24.0000 </r>
       <r>    21.5490     0.0000    24.0000 </r>
       <r>    21.6901     0.0000    24.0000 </r>
       <r>    21.8311     0.0000    24.0000 </r>
       <r>    21.9721     0.0000    24.0000 </r>
       <r>    22.1131     0.0000    24.0000 </r>
      </set>
     </set>
    </array>
   </total>
  </dos>
 </calculation>
 <structure name="finalpos" >
  <crystal>
   <varray name="basis" >
    <v>       2.80969200       0.00000000       0.00000000 </v>
    <v>       0.00000000       2.80969200       0.00000000 </v>
    <v>       0.00000000       0.00000000       2.80969200 </v>
   </varray>
   <i name="volume">     22.18074580 </i>
   <varray name="rec_basis" >
    <v>       0.35591090       0.00000000       0.00000000 </v>
    <v>       0.00000000       0.35591090       0.00000000 </v>
    <v>       0.00000000       0.00000000       0.35591090 </v>
   </varray>
  </crystal>
  <varray name="positions" >
   <v>       0.78287764       0.78287764       0.21712236 </v>
   <v>       0.21712236       0.21712236       0.21712236 </v>
   <v>       0.28287764       0.71712236       0.71712236 </v>
   <v>       0.71712236       0.28287764       0.71712236 </v>
   <v>       0.00000000       0.00000000       0.00000000 </v>
   <v>       0.50000000       0.50000000       0.50000000 </v>
  </varray>
 </structure>
</modeling>
